LAMMPS (2 Aug 2023 - Update 3)
OMP_NUM_THREADS environment is not set. Defaulting to 1 thread. (src/comm.cpp:98)
  using 1 OpenMP thread(s) per MPI task
# A Simple input file to solvate two silicas
# Mahdi Tavakol (mahditavakol90@gmail.com)

# ------------------------ INITIALIZATION ----------------------------
units          real
boundary       p p p
atom_style     full

# ------------------- Neighbor generation and skin ---------------------
neigh_modify   delay 1
neighbor       2 bin

# -------------------------- VARIABLES --------------------------------
variable       temp       equal 300
variable       timestep   equal 1.0
variable       tDamp      equal 100.0*${timestep}
variable       tDamp      equal 100.0*1
variable       press      equal 0.0
variable       pDamp      equal 1000.0*${timestep}
variable       pDamp      equal 1000.0*1
variable       R          equal 10000000              # 10ns
variable       step       equal step
variable       dumpFreq   equal 100 #100000                # 100ps
variable       thermoFreq equal 100 #1000                  # 100ps
variable       Nfreq      equal ${dumpFreq}
variable       Nfreq      equal 100
variable       Nrepeat    equal 10
variable       Nevery     equal 1000
variable       time       equal time
variable       totEnergy  equal etotal
variable       kinEnergy  equal ke


#######################################################################
variable       TIscale    equal  0.52
variable       TIindex    equal  0.50

# --------------------- Forcefield ------------------------------------
bond_style     harmonic
angle_style    harmonic
dihedral_style harmonic
improper_style harmonic
pair_style     lj/charmm/coul/long 10 12
kspace_style   pppm 1.0e-6

# ----------------------- READ DATA FILE ------------------------------
read_data      TI-0-52.dat
Reading data file ...
  orthogonal box = (0.29813957 1.2320492 -131.60679) to (36.781681 32.762488 162.03988)
  2 by 2 by 10 MPI processor grid
WARNING: Pair style lj/cut/coul/long in data file differs from currently defined pair style lj/charmm/coul/long (src/read_data.cpp:701)
  reading atoms ...
  13569 atoms
  reading velocities ...
  13569 velocities
  scanning bonds ...
  2 = max bonds/atom
  scanning angles ...
  6 = max angles/atom
  scanning dihedrals ...
  3 = max dihedrals/atom
  reading bonds ...
  8934 bonds
  reading angles ...
  6023 angles
  reading dihedrals ...
  408 dihedrals
Finding 1-2 1-3 1-4 neighbors ...
  special bond factors lj:    0        0        0       
  special bond factors coul:  0        0        0       
     4 = max # of 1-2 neighbors
     3 = max # of 1-3 neighbors
     5 = max # of 1-4 neighbors
     6 = max # of special neighbors
  special bonds CPU = 0.003 seconds
  read_data CPU = 0.103 seconds

# -------------------------- SETTINGS ---------------------------------
#### Computes Required
compute        mytemp all   temp
thermo         ${thermoFreq}
thermo         100
thermo_style   custom step temp etotal epair ebond eangle press density pxx pyy pzz lx ly lz spcpu
restart        10000 restart1.bin restart2.bin



#######################################################################
group          TI2      type 10
291 atoms in group TI2
variable       TI2count equal count(TI2)
variable       q        atom "1.5 + v_TIscale*(1.8-1.5)"
set            type     10 charge v_q
Setting atom values ...
  291 settings made for charge
group          P        type 3
384 atoms in group P
variable       Pcount   equal count(P)
variable       Pq       atom "q - ( (v_TIscale - v_TIindex)*(1.8-1.5)*v_TI2count / v_Pcount)"
set            group    P charge v_Pq
Setting atom values ...
  384 settings made for charge

#######################################################################
group          HAp      type <= 5
2513 atoms in group HAp
compute        peatom1 all pe/atom pair kspace
compute        peatom2 HAp pe/atom pair kspace
compute        pe1     all reduce sum c_peatom1
compute        pe2     HAp reduce sum c_peatom2
variable       count1  equal count(all)
variable       count2  equal count(HAp)
variable       peA     equal c_pe1/${count1}
variable       peA     equal c_pe1/13569
variable       peB     equal c_pe2/${count2}
variable       peB     equal c_pe2/2513

compute        peAll   all pe pair kspace
variable       potEnergy equal c_peAll

# ------------------- Simulation Parameters ---------------------------
timestep       1
timestep       ${timestep}
timestep       1


# -----------------------     -----------------------------------
fix            3 all shake 0.0001 20 1000 b 4 a 3
Finding SHAKE clusters ...
       0 = # of size 2 clusters
       0 = # of size 3 clusters
       0 = # of size 4 clusters
    3583 = # of frozen angles
  find clusters CPU = 0.002 seconds
fix            1 all npt temp ${temp} ${temp} ${tDamp} aniso ${press} ${press} ${pDamp} drag 2.0
fix            1 all npt temp 300 ${temp} ${tDamp} aniso ${press} ${press} ${pDamp} drag 2.0
fix            1 all npt temp 300 300 ${tDamp} aniso ${press} ${press} ${pDamp} drag 2.0
fix            1 all npt temp 300 300 100 aniso ${press} ${press} ${pDamp} drag 2.0
fix            1 all npt temp 300 300 100 aniso 0 ${press} ${pDamp} drag 2.0
fix            1 all npt temp 300 300 100 aniso 0 0 ${pDamp} drag 2.0
fix            1 all npt temp 300 300 100 aniso 0 0 1000 drag 2.0

fix            6 all print ${dumpFreq} "${time} ${totEnergy} ${kinEnergy} ${potEnergy}" file Energies-time.txt screen no title ""
fix            6 all print 100 "${time} ${totEnergy} ${kinEnergy} ${potEnergy}" file Energies-time.txt screen no title ""
fix            7 all print ${dumpFreq} "${time} ${peA} ${peB}"                          file Energies-time-FromCompute.txt screen no title ""
fix            7 all print 100 "${time} ${peA} ${peB}"                          file Energies-time-FromCompute.txt screen no title ""

rerun          ../dump/dump.npt.lammpstrj dump x y z format native
PPPM initialization ...
  using 12-bit tables for long-range coulomb (src/kspace.cpp:342)
  G vector (1/distance) = 0.27806325
  grid = 48 45 216
  stencil order = 5
  estimated absolute RMS force accuracy = 0.00037687754
  estimated relative force accuracy = 1.1349555e-06
  using double precision KISS FFT
  3d grid and FFT values/proc = 26970 12960
Generated 45 of 45 mixed pair_coeff terms from arithmetic mixing rule
Neighbor list info ...
  update: every = 1 steps, delay = 1 steps, check = yes
  max neighbors/atom: 2000, page size: 100000
  master list distance cutoff = 14
  ghost atom cutoff = 14
  binsize = 7, bins = 6 5 42
  1 neighbor lists, perpetual/occasional/extra = 1 0 0
  (1) pair lj/charmm/coul/long, perpetual
      attributes: half, newton on
      pair build: half/bin/newton
      stencil: half/bin/3d
      bin: standard
WARNING: Inconsistent image flags (src/domain.cpp:815)
SHAKE stats (type/ave/delta/count) on step 0
Bond:   4   0.9572    0.00021317      7166
Angle:  3   104.52    0.0171946       3583
Per MPI rank memory allocation (min/avg/max) = 15.38 | 15.73 | 16.01 Mbytes
   Step          Temp          TotEng         E_pair         E_bond        E_angle         Press         Density          Pxx            Pyy            Pzz             Lx             Ly             Lz           S/CPU     
         0   383.34105     -296922.83     -310483.68      1113.056       1038.2657     -8267.9159      1.5128249     -8589.9915     -7598.8794     -8614.8769      37.657143      32.594348      112.26721      0            
WARNING: Inconsistent image flags (src/domain.cpp:815)
SHAKE stats (type/ave/delta/count) on step 100
Bond:   4   0.957137  0.000246749     7166
Angle:  3   104.52    0.0184329       3583
       100   383.34105     -288578.42     -302355.16      958.61464      1408.6029      24694.967      1.5561089      21888.295      24046.674      28149.933      37.316695      32.295418      111.15965      764.4926     
WARNING: Inconsistent image flags (src/domain.cpp:815)
SHAKE stats (type/ave/delta/count) on step 200
Bond:   4   0.957184  0.000550237     7166
Angle:  3   104.52    0.0232427       3583
       200   383.34105     -288703.59     -303179.29      1543.1135      1523.049       32024.71       1.5755662      29474.374      27290.995      39308.76       37.152058      32.146588      110.78395      2300.3067    
WARNING: Inconsistent image flags (src/domain.cpp:815)
SHAKE stats (type/ave/delta/count) on step 300
Bond:   4   0.957223  0.000258931     7166
Angle:  3   104.52    0.0268935       3583
       300   383.34105     -288875        -303206.6       1323.5849      1598.4881      32676.951      1.5724075      25638.496      29361.645      43030.711      37.069973      32.068945      111.52165      2438.7714    
WARNING: Inconsistent image flags (src/domain.cpp:815)
SHAKE stats (type/ave/delta/count) on step 400
Bond:   4   0.957221  0.000355525     7166
Angle:  3   104.52    0.0214904       3583
       400   383.34105     -289822.99     -304104.04      1342.6922      1528.8272      28556.379      1.5593918      24880.243      26085.518      34703.377      37.04294       32.054246      112.58616      2494.4592    
WARNING: Inconsistent image flags (src/domain.cpp:815)
SHAKE stats (type/ave/delta/count) on step 500
Bond:   4   0.957185  0.000381088     7166
Angle:  3   104.52    0.0332482       3583
       500   383.34105     -290473.73     -304662.7       1305.8712      1473.5786      26873.456      1.5582508      24851.379      24995.346      30773.642      36.985147      31.993451      113.05908      2525.9309    
WARNING: Inconsistent image flags (src/domain.cpp:815)
SHAKE stats (type/ave/delta/count) on step 600
Bond:   4   0.957179  0.000452303     7166
Angle:  3   104.52    0.0445385       3583
       600   383.34105     -290751.42     -304832.56      1268.4082      1403.2002      27022.33       1.5686275      26267.825      25878.397      28920.769      36.871214      31.884987      113.04146      2550.9018    
WARNING: Inconsistent image flags (src/domain.cpp:815)
SHAKE stats (type/ave/delta/count) on step 700
Bond:   4   0.957189  0.000239579     7166
Angle:  3   104.52    0.0198587       3583
       700   383.34105     -290885.78     -305055.11      1381.5316      1378.2682      28502.933      1.5766656      27064.33       27209.276      31235.192      36.806929      31.805925      112.94163      2526.0662    
WARNING: Inconsistent image flags (src/domain.cpp:815)
SHAKE stats (type/ave/delta/count) on step 800
Bond:   4   0.957206  0.000699981     7166
Angle:  3   104.52    0.0270993       3583
       800   383.34105     -290727.06     -304925.22      1319.4546      1469.1686      29159.336      1.5774262      27306.448      26985.061      33186.5        36.7827        31.770954      113.08587      2582.0556    
WARNING: Inconsistent image flags (src/domain.cpp:815)
SHAKE stats (type/ave/delta/count) on step 900
Bond:   4   0.957207  0.000440483     7166
Angle:  3   104.52    0.0653423       3583
       900   383.34105     -291137.35     -305321.42      1379.357       1395.1828      28589.268      1.5734862      25693.466      27549.027      32525.312      36.788144      31.759206      113.39419      2589.6283    
WARNING: Inconsistent image flags (src/domain.cpp:815)
SHAKE stats (type/ave/delta/count) on step 1000
Bond:   4   0.9572    0.000251315     7166
Angle:  3   104.52    0.0257481       3583
      1000   383.34105     -290834.43     -304980.05      1372.9615      1363.1322      29133.168      1.5729161      27594.683      28251.543      31553.278      36.764904      31.742284      113.5675       2600.599     
WARNING: Inconsistent image flags (src/domain.cpp:815)
SHAKE stats (type/ave/delta/count) on step 1100
Bond:   4   0.957203  0.000247816     7166
Angle:  3   104.52    0.0278963       3583
      1100   383.34105     -291085.4      -305244.41      1357.9339      1391.5546      27991.641      1.5717579      27418.784      26242.048      30314.092      36.755719      31.731236      113.71916      2589.2734    
WARNING: Inconsistent image flags (src/domain.cpp:815)
SHAKE stats (type/ave/delta/count) on step 1200
Bond:   4   0.957197  0.000619535     7166
Angle:  3   104.52    0.0373552       3583
      1200   383.34105     -290975.23     -305144.38      1387.8283      1371.79        29294.715      1.5722321      29110.474      26933.551      31840.121      36.745389      31.725723      113.73659      2606.8646    
WARNING: Inconsistent image flags (src/domain.cpp:815)
SHAKE stats (type/ave/delta/count) on step 1300
Bond:   4   0.957205  0.000220673     7166
Angle:  3   104.52    0.0289066       3583
      1300   383.34105     -290920.88     -305059.84      1327.8721      1401.5626      29359.007      1.5713234      28131.872      28273.667      31671.482      36.740138      31.739836      113.76802      2602.7832    
WARNING: Inconsistent image flags (src/domain.cpp:815)
SHAKE stats (type/ave/delta/count) on step 1400
Bond:   4   0.957202  0.000217775     7166
Angle:  3   104.52    0.0194688       3583
      1400   383.34105     -291426.81     -305583.57      1385.259       1361.9698      28617.968      1.5694047      27854.366      26650.172      31349.366      36.732622      31.761326      113.85333      2570.8046    
WARNING: Inconsistent image flags (src/domain.cpp:815)
SHAKE stats (type/ave/delta/count) on step 1500
Bond:   4   0.9572    0.000241374     7166
Angle:  3   104.52    0.0211664       3583
      1500   383.34105     -291300.02     -305463.12      1374.7944      1378.7731      28856.897      1.5690557      27653.202      26461.635      32455.854      36.718808      31.760915      113.92297      2618.1711    
WARNING: Inconsistent image flags (src/domain.cpp:815)
SHAKE stats (type/ave/delta/count) on step 1600
Bond:   4   0.9572    0.000454425     7166
Angle:  3   104.52    0.0448688       3583
      1600   383.34105     -291580.29     -305645.05      1360.191       1295.0409      28943.549      1.5693535      27821.685      27020.755      31988.207      36.711488      31.753749      113.94977      2599.8695    
WARNING: Inconsistent image flags (src/domain.cpp:815)
SHAKE stats (type/ave/delta/count) on step 1700
Bond:   4   0.9572    0.000338149     7166
Angle:  3   104.52    0.0264407       3583
      1700   383.34105     -291642.03     -305696.43      1377.9139      1266.9568      30066.089      1.5698852      27378.381      28749.749      34070.138      36.699525      31.736847      114.009        2581.813     
WARNING: Inconsistent image flags (src/domain.cpp:815)
SHAKE stats (type/ave/delta/count) on step 1800
Bond:   4   0.957204  0.00061141      7166
Angle:  3   104.52    0.0353902       3583
      1800   383.34105     -291470.3      -305533.95      1374.2022      1279.9196      30246.872      1.5690637      29970.572      28386.209      32383.835      36.679277      31.721895      114.18545      2606.7907    
WARNING: Inconsistent image flags (src/domain.cpp:815)
SHAKE stats (type/ave/delta/count) on step 1900
Bond:   4   0.9572    0.000322962     7166
Angle:  3   104.52    0.0201121       3583
      1900   383.34105     -291695.09     -305808.68      1413.9866      1290.0752      29495.616      1.5683727      29509.866      26267.12       32709.862      36.664479      31.711258      114.3202       2618.2946    
WARNING: Inconsistent image flags (src/domain.cpp:815)
SHAKE stats (type/ave/delta/count) on step 2000
Bond:   4   0.957202  0.000334642     7166
Angle:  3   104.52    0.0453253       3583
      2000   383.34105     -291548.98     -305643.87      1346.5118      1338.8517      30182.17       1.5680068      30318.642      28042.593      32185.277      36.657712      31.695456      114.42501      2628.0634    
WARNING: Inconsistent image flags (src/domain.cpp:815)
SHAKE stats (type/ave/delta/count) on step 2100
Bond:   4   0.957202  0.000210131     7166
Angle:  3   104.52    0.0170024       3583
      2100   383.34105     -291859.46     -305961.04      1379.9475      1312.099       29389.502      1.5663286      27247.757      28610.442      32310.307      36.681276      31.696647      114.46972      2610.659     
WARNING: Inconsistent image flags (src/domain.cpp:815)
SHAKE stats (type/ave/delta/count) on step 2200
Bond:   4   0.957199  0.000247874     7166
Angle:  3   104.52    0.0190713       3583
      2200   383.34105     -291481.46     -305553.86      1351.6276      1311.2433      30208.644      1.5664275      29042.656      27796.291      33786.983      36.687576      31.701607      114.42493      2625.8373    
WARNING: Inconsistent image flags (src/domain.cpp:815)
SHAKE stats (type/ave/delta/count) on step 2300
Bond:   4   0.957203  0.00035887      7166
Angle:  3   104.52    0.0333269       3583
      2300   383.34105     -291469.36     -305615.8       1409.5237      1327.381       31094.095      1.5668612      29332.423      29269.865      34679.996      36.663286      31.704239      114.45953      2593.3954    
WARNING: Inconsistent image flags (src/domain.cpp:815)
SHAKE stats (type/ave/delta/count) on step 2400
Bond:   4   0.957206  0.000766442     7166
Angle:  3   104.52    0.027718        3583
      2400   383.34105     -291350.39     -305411.53      1389.7546      1261.8578      30562.859      1.5639243      29555.636      28122.012      34010.928      36.662994      31.732245      114.57419      2620.6015    
WARNING: Inconsistent image flags (src/domain.cpp:815)
SHAKE stats (type/ave/delta/count) on step 2500
Bond:   4   0.957201  0.000648226     7166
Angle:  3   104.52    0.0601446       3583
      2500   383.34105     -291605.57     -305610.03      1317.0688      1277.8626      29919.045      1.5624354      27661.773      27803.657      34291.706      36.66055       31.759296      114.59332      2587.4379    
WARNING: Inconsistent image flags (src/domain.cpp:815)
SHAKE stats (type/ave/delta/count) on step 2600
Bond:   4   0.957195  0.00025987      7166
Angle:  3   104.52    0.0281891       3583
      2600   383.34105     -291814.92     -305921.17      1416.6611      1280.0586      29770.508      1.5636617      29926.079      26610.323      32775.123      36.638299      31.766533      114.5469       2597.9548    
WARNING: Inconsistent image flags (src/domain.cpp:815)
SHAKE stats (type/ave/delta/count) on step 2700
Bond:   4   0.957196  0.000714975     7166
Angle:  3   104.52    0.0449264       3583
      2700   383.34105     -291914        -305972.46      1325.1777      1323.7536      28770.008      1.5657607      27569.666      25385.619      33354.74       36.627692      31.748582      114.49117      2629.8675    
WARNING: Inconsistent image flags (src/domain.cpp:815)
SHAKE stats (type/ave/delta/count) on step 2800
Bond:   4   0.9572    0.000216247     7166
Angle:  3   104.52    0.0183676       3583
      2800   383.34105     -291824.81     -305900         1385.269       1280.3911      29188.919      1.5666879      28557.928      26671.948      32336.881      36.631003      31.727927      114.48754      2594.0431    
WARNING: Inconsistent image flags (src/domain.cpp:815)
SHAKE stats (type/ave/delta/count) on step 2900
Bond:   4   0.957201  0.000559275     7166
Angle:  3   104.52    0.0391652       3583
      2900   383.34105     -291530.66     -305641.81      1387.1619      1314.4613      30641.955      1.5675953      29171.272      27036.98       35717.613      36.639002      31.706446      114.47379      2628.7941    
WARNING: Inconsistent image flags (src/domain.cpp:815)
SHAKE stats (type/ave/delta/count) on step 3000
Bond:   4   0.957201  0.00056187      7166
Angle:  3   104.52    0.0327899       3583
      3000   383.34105     -291540.56     -305573.45      1366.911       1256.4531      29853.252      1.5668334      28903.479      28268.279      32387.997      36.65262       31.690316      114.54518      2610.7695    
WARNING: Inconsistent image flags (src/domain.cpp:815)
SHAKE stats (type/ave/delta/count) on step 3100
Bond:   4   0.957202  0.000206985     7166
Angle:  3   104.52    0.0177688       3583
      3100   383.34105     -291609.95     -305635.27      1352.9902      1262.8062      30532.666      1.5665598      29219.271      28770.248      33608.479      36.675987      31.686138      114.50729      1888.8118    
WARNING: Inconsistent image flags (src/domain.cpp:815)
SHAKE stats (type/ave/delta/count) on step 3200
Bond:   4   0.957199  0.000445394     7166
Angle:  3   104.52    0.0446046       3583
      3200   383.34105     -291861.87     -305870.66      1311.7233      1287.5302      28892.042      1.5656257      28919.494      26583.947      31172.687      36.693818      31.699949      114.47004      2623.8016    
WARNING: Inconsistent image flags (src/domain.cpp:815)
SHAKE stats (type/ave/delta/count) on step 3300
Bond:   4   0.957197  0.000509443     7166
Angle:  3   104.52    0.043234        3583
      3300   383.34105     -291428.59     -305530.04      1412.2892      1279.6297      30695.348      1.5673602      28868.175      29228.724      33989.145      36.691251      31.694097      114.37248      2614.0079    
WARNING: Inconsistent image flags (src/domain.cpp:815)
SHAKE stats (type/ave/delta/count) on step 3400
Bond:   4   0.9572    0.000624867     7166
Angle:  3   104.52    0.0266508       3583
      3400   383.34105     -291760.36     -305764.44      1314.5953      1279.9561      29386.662      1.5677185      27704.311      28449.44       32006.235      36.683597      31.705953      114.32743      2637.3205    
WARNING: Inconsistent image flags (src/domain.cpp:815)
SHAKE stats (type/ave/delta/count) on step 3500
Bond:   4   0.957197  0.000583063     7166
Angle:  3   104.52    0.0228067       3583
      3500   383.34105     -291234.63     -305315.56      1319.3804      1352.0176      30117.871      1.5686589      29081.827      27675.415      33596.37       36.669734      31.711082      114.2836       2610.9813    
WARNING: Inconsistent image flags (src/domain.cpp:815)
SHAKE stats (type/ave/delta/count) on step 3600
Bond:   4   0.9572    0.000438931     7166
Angle:  3   104.52    0.0405426       3583
      3600   383.34105     -291814.27     -305965.6       1424.2447      1317.5636      29272.977      1.5695094      27399.569      27807.183      32612.177      36.642048      31.71459       114.29533      2645.5461    
WARNING: Inconsistent image flags (src/domain.cpp:815)
SHAKE stats (type/ave/delta/count) on step 3700
Bond:   4   0.957207  0.000550843     7166
Angle:  3   104.52    0.0360231       3583
      3700   383.34105     -291437.11     -305461.18      1312.7857      1301.7516      29686.821      1.5676842      26961.944      27365.502      34733.017      36.639591      31.733532      114.36776      2599.4006    
WARNING: Inconsistent image flags (src/domain.cpp:815)
SHAKE stats (type/ave/delta/count) on step 3800
Bond:   4   0.957203  0.000216474     7166
Angle:  3   104.52    0.0182585       3583
      3800   383.34105     -291304.44     -305358.15      1343.6291      1300.5538      30543.861      1.565649       29106.108      27854.656      34670.819      36.632101      31.750939      114.47705      2630.547     
WARNING: Inconsistent image flags (src/domain.cpp:815)
SHAKE stats (type/ave/delta/count) on step 3900
Bond:   4   0.957202  0.000217578     7166
Angle:  3   104.52    0.0196007       3583
      3900   383.34105     -291921.42     -305973.21      1377.0574      1265.202       29007.681      1.564131       27303.202      27991.166      31728.676      36.634395      31.750415      114.58287      2612.3615    
WARNING: Inconsistent image flags (src/domain.cpp:815)
SHAKE stats (type/ave/delta/count) on step 4000
Bond:   4   0.957199  0.000402435     7166
Angle:  3   104.52    0.0317478       3583
      4000   383.34105     -291496.55     -305511.96      1367.7431      1238.1354      30376.311      1.564112       29570.556      27238.005      34320.372      36.63184       31.73761       114.63849      2579.847     
WARNING: Inconsistent image flags (src/domain.cpp:815)
SHAKE stats (type/ave/delta/count) on step 4100
Bond:   4   0.957204  0.000289002     7166
Angle:  3   104.52    0.0235449       3583
      4100   383.34105     -291664.41     -305826.07      1383.4052      1368.7262      30335.235      1.5636061      27852.262      28259.58       34893.865      36.638261      31.713039      114.74432      2632.2159    
WARNING: Inconsistent image flags (src/domain.cpp:815)
SHAKE stats (type/ave/delta/count) on step 4200
Bond:   4   0.957204  0.000407314     7166
Angle:  3   104.52    0.0362045       3583
      4200   383.34105     -291587.27     -305673.1       1346.9118      1329.3918      29854.262      1.5611989      29920.04       27277.84       32364.905      36.646773      31.697557      114.95066      2619.7579    
WARNING: Inconsistent image flags (src/domain.cpp:815)
SHAKE stats (type/ave/delta/count) on step 4300
Bond:   4   0.957199  0.000331794     7166
Angle:  3   104.52    0.0324156       3583
      4300   383.34105     -291623.91     -305704         1404.5615      1265.9925      29551.962      1.560516       29159.74       26833.642      32662.505      36.646827      31.678561      115.06976      2617.1608    
WARNING: Inconsistent image flags (src/domain.cpp:815)
SHAKE stats (type/ave/delta/count) on step 4400
Bond:   4   0.957199  0.00051093      7166
Angle:  3   104.52    0.0459812       3583
      4400   383.34105     -291407.84     -305417.56      1332.0705      1268.1203      30061.297      1.5615584      28665.39       27626.901      33891.601      36.633759      31.655074      115.11931      2642.3216    
WARNING: Inconsistent image flags (src/domain.cpp:815)
SHAKE stats (type/ave/delta/count) on step 4500
Bond:   4   0.957207  0.000489017     7166
Angle:  3   104.52    0.0319827       3583
      4500   383.34105     -291526.53     -305604.23      1370.9677      1297.1988      29577.873      1.5604132      28307.703      28003.411      32422.505      36.627201      31.656298      115.21998      2619.6044    
WARNING: Inconsistent image flags (src/domain.cpp:815)
SHAKE stats (type/ave/delta/count) on step 4600
Bond:   4   0.957207  0.000370701     7166
Angle:  3   104.52    0.0246849       3583
      4600   383.34105     -291341.2      -305377.46      1333.7153      1293.0138      29746.897      1.5572692      28167.196      28089.709      32983.788      36.649574      31.683465      115.28318      2618.597     
WARNING: Inconsistent image flags (src/domain.cpp:815)
SHAKE stats (type/ave/delta/count) on step 4700
Bond:   4   0.957198  0.000212396     7166
Angle:  3   104.52    0.017048        3583
      4700   383.34105     -291622.38     -305624         1299.599       1292.4939      28403.079      1.5554168      26014.13       26860.543      32334.563      36.673349      31.70724       115.25916      2636.7987    
WARNING: Inconsistent image flags (src/domain.cpp:815)
SHAKE stats (type/ave/delta/count) on step 4800
Bond:   4   0.957195  0.000486141     7166
Angle:  3   104.52    0.0407045       3583
      4800   383.34105     -291451.29     -305444.91      1322.6673      1261.4162      29397.574      1.558175       27714.217      28539.346      31939.159      36.658887      31.700888      115.12359      2628.4674    
WARNING: Inconsistent image flags (src/domain.cpp:815)
SHAKE stats (type/ave/delta/count) on step 4900
Bond:   4   0.957205  0.000302037     7166
Angle:  3   104.52    0.0210504       3583
      4900   383.34105     -291518        -305546.85      1366.9376      1252.3828      28882.592      1.5579772      27402.878      26244.503      33000.396      36.677279      31.717546      115.02003      2637.4459    
WARNING: Inconsistent image flags (src/domain.cpp:815)
SHAKE stats (type/ave/delta/count) on step 5000
Bond:   4   0.957197  0.000503612     7166
Angle:  3   104.52    0.0375855       3583
      5000   383.34105     -291614.05     -305593.85      1316.016       1254.2588      28961.793      1.5580004      27153.244      26778.385      32953.75       36.673195      31.718963      115.02598      2572.1877    
WARNING: Inconsistent image flags (src/domain.cpp:815)
SHAKE stats (type/ave/delta/count) on step 5100
Bond:   4   0.957201  0.000329133     7166
Angle:  3   104.52    0.0212783       3583
      5100   383.34105     -291535.43     -305534.12      1305.4804      1283.6845      29959.765      1.558827       28565.011      28332.729      32981.555      36.652985      31.720557      115.02259      2580.394     
WARNING: Inconsistent image flags (src/domain.cpp:815)
SHAKE stats (type/ave/delta/count) on step 5200
Bond:   4   0.957201  0.000425807     7166
Angle:  3   104.52    0.0209338       3583
      5200   383.34105     -291688.18     -305724.82      1386.4349      1240.6763      28752.233      1.5579326      25954.808      27083.427      33218.463      36.644318      31.739892      115.04573      2583.6613    
WARNING: Inconsistent image flags (src/domain.cpp:815)
SHAKE stats (type/ave/delta/count) on step 5300
Bond:   4   0.957196  0.000415965     7166
Angle:  3   104.52    0.0210527       3583
      5300   383.34105     -291712.21     -305660.57      1298.59        1240.2471      29141.872      1.5587185      26258.647      27211.224      33955.746      36.621207      31.737676      115.06832      2640.5661    
WARNING: Inconsistent image flags (src/domain.cpp:815)
SHAKE stats (type/ave/delta/count) on step 5400
Bond:   4   0.957206  0.000551235     7166
Angle:  3   104.52    0.0234081       3583
      5400   383.34105     -291511.43     -305546.32      1358.1152      1267.2456      30030.354      1.5590802      28009.109      26300.777      35781.176      36.603321      31.726151      115.13965      2635.2759    
WARNING: Inconsistent image flags (src/domain.cpp:815)
SHAKE stats (type/ave/delta/count) on step 5500
Bond:   4   0.957205  0.000617738     7166
Angle:  3   104.52    0.0214144       3583
      5500   383.34105     -291604.61     -305624.47      1341.7443      1268.5902      28466.54       1.5557244      26750.05       26223.779      32425.79       36.622259      31.73594       115.29278      2632.4535    
WARNING: Inconsistent image flags (src/domain.cpp:815)
SHAKE stats (type/ave/delta/count) on step 5600
Bond:   4   0.957197  0.000713567     7166
Angle:  3   104.52    0.0417949       3583
      5600   383.34105     -291436.14     -305471.82      1372.7247      1253.4249      28211.403      1.5552418      25797.255      26662.839      32174.114      36.633483      31.718714      115.35583      2616.0998    
WARNING: Inconsistent image flags (src/domain.cpp:815)
SHAKE stats (type/ave/delta/count) on step 5700
Bond:   4   0.957196  0.000230267     7166
Angle:  3   104.52    0.0370938       3583
      5700   383.34105     -291360.54     -305322.85      1350.9086      1201.8721      30326.474      1.5579558      28787.613      28330.774      33861.034      36.622335      31.683101      115.31941      2604.5787    
WARNING: Inconsistent image flags (src/domain.cpp:815)
SHAKE stats (type/ave/delta/count) on step 5800
Bond:   4   0.957202  0.000637434     7166
Angle:  3   104.52    0.0669412       3583
      5800   383.34105     -291619.91     -305629.24      1332.172       1267.6319      28855.774      1.5580364      27227.377      26821.501      32518.443      36.630904      31.677594      115.30651      2574.5966    
WARNING: Inconsistent image flags (src/domain.cpp:815)
SHAKE stats (type/ave/delta/count) on step 5900
Bond:   4   0.957203  0.000484649     7166
Angle:  3   104.52    0.0266358       3583
      5900   383.34105     -291565.65     -305644.49      1363.7848      1305.5285      28962.26       1.5571407      26724.577      28189.22       31972.983      36.627659      31.680985      115.3707       2605.6161    
WARNING: Inconsistent image flags (src/domain.cpp:815)
SHAKE stats (type/ave/delta/count) on step 6000
Bond:   4   0.957206  0.000209313     7166
Angle:  3   104.52    0.0208291       3583
      6000   383.34105     -291509.24     -305596.02      1390.0464      1287.2041      29418.194      1.5550217      27736.271      27546.754      32971.556      36.626475      31.701675      115.45625      2641.6979    
WARNING: Inconsistent image flags (src/domain.cpp:815)
SHAKE stats (type/ave/delta/count) on step 6100
Bond:   4   0.957205  0.000522473     7166
Angle:  3   104.52    0.0393144       3583
      6100   383.34105     -291736.23     -305736.02      1328.6058      1261.6559      28144.484      1.5525934      26292.459      26255.001      31885.993      36.636844      31.7318        115.49435      2570.5014    
WARNING: Inconsistent image flags (src/domain.cpp:815)
SHAKE stats (type/ave/delta/count) on step 6200
Bond:   4   0.957195  0.000223116     7166
Angle:  3   104.52    0.0190693       3583
      6200   383.34105     -291501.95     -305547.28      1372.0076      1263.7981      29333.1        1.5534711      28167.528      26321.601      33510.172      36.640016      31.720712      115.45945      2570.5193    
WARNING: Inconsistent image flags (src/domain.cpp:815)
SHAKE stats (type/ave/delta/count) on step 6300
Bond:   4   0.957201  0.000215839     7166
Angle:  3   104.52    0.0184439       3583
      6300   383.34105     -291682.61     -305734.09      1377.6828      1264.2701      29175.043      1.5551051      27221.232      28037.323      32266.572      36.643424      31.677847      115.48346      2588.2028    
WARNING: Inconsistent image flags (src/domain.cpp:815)
SHAKE stats (type/ave/delta/count) on step 6400
Bond:   4   0.957207  0.000696564     7166
Angle:  3   104.52    0.0186321       3583
      6400   383.34105     -291475.11     -305508.28      1352.8192      1270.824       28454.538      1.5530185      25701.756      27237.484      32424.374      36.669291      31.660889      115.61894      2647.8247    
WARNING: Inconsistent image flags (src/domain.cpp:815)
SHAKE stats (type/ave/delta/count) on step 6500
Bond:   4   0.957202  0.000362973     7166
Angle:  3   104.52    0.0406073       3583
      6500   383.34105     -291324.1      -305403.71      1392.3108      1277.7683      28889.629      1.5507904      26389.004      27484.354      32795.529      36.681823      31.673555      115.69922      2609.879     
WARNING: Inconsistent image flags (src/domain.cpp:815)
SHAKE stats (type/ave/delta/count) on step 6600
Bond:   4   0.957201  0.000437416     7166
Angle:  3   104.52    0.0433434       3583
      6600   383.34105     -291400.49     -305358.91      1311.3406      1237.5504      28861.96       1.5501604      25917.348      28015.06       32653.473      36.680981      31.683396      115.71294      2649.0914    
WARNING: Inconsistent image flags (src/domain.cpp:815)
SHAKE stats (type/ave/delta/count) on step 6700
Bond:   4   0.957202  0.000270727     7166
Angle:  3   104.52    0.021224        3583
      6700   383.34105     -291140.52     -305242.51      1350.6341      1341.8312      30039.213      1.5496648      27187.561      29484.318      33445.76       36.660872      31.702955      115.74199      2634.0231    
WARNING: Inconsistent image flags (src/domain.cpp:815)
SHAKE stats (type/ave/delta/count) on step 6800
Bond:   4   0.957198  0.000523756     7166
Angle:  3   104.52    0.0282548       3583
      6800   383.34105     -291570.13     -305555.45      1302.274       1273.5167      28339.512      1.5492963      26408.184      26767.828      31842.524      36.639379      31.717123      115.78569      2591.2071    
WARNING: Inconsistent image flags (src/domain.cpp:815)
SHAKE stats (type/ave/delta/count) on step 6900
Bond:   4   0.9572    0.000283042     7166
Angle:  3   104.52    0.0224425       3583
      6900   383.34105     -291348.84     -305469.54      1402.2547      1308.9184      29645.918      1.5503218      28266.636      27367.318      33303.798      36.623184      31.712085      115.77865      2620.1226    
WARNING: Inconsistent image flags (src/domain.cpp:815)
SHAKE stats (type/ave/delta/count) on step 7000
Bond:   4   0.957204  0.000251175     7166
Angle:  3   104.52    0.0194613       3583
      7000   383.34105     -291541.86     -305526.83      1354.5103      1220.9327      28658.931      1.5491346      25842.432      27271.33       32863.03       36.633345      31.718673      115.81118      2619.0569    
WARNING: Inconsistent image flags (src/domain.cpp:815)
SHAKE stats (type/ave/delta/count) on step 7100
Bond:   4   0.9572    0.000326983     7166
Angle:  3   104.52    0.0190385       3583
      7100   383.34105     -291303.14     -305382.22      1373.9324      1295.6227      29535.597      1.5486946      28096.453      27423.816      33086.523      36.634837      31.701632      115.90164      2620.1495    
WARNING: Inconsistent image flags (src/domain.cpp:815)
SHAKE stats (type/ave/delta/count) on step 7200
Bond:   4   0.957195  0.000564035     7166
Angle:  3   104.52    0.0548045       3583
      7200   383.34105     -291286        -305230.52      1331.0769      1203.9143      30962.547      1.5510942      29080.284      29357.389      34449.969      36.623491      31.66409       115.89543      2610.854     
WARNING: Inconsistent image flags (src/domain.cpp:815)
SHAKE stats (type/ave/delta/count) on step 7300
Bond:   4   0.957201  0.000553753     7166
Angle:  3   104.52    0.0444448       3583
      7300   383.34105     -291120.67     -305060.01      1349.5287      1180.2797      31044.333      1.5514883      29576.146      30063.444      33493.408      36.627578      31.650655      115.90224      2644.3611    
WARNING: Inconsistent image flags (src/domain.cpp:815)
SHAKE stats (type/ave/delta/count) on step 7400
Bond:   4   0.957199  0.000206493     7166
Angle:  3   104.52    0.0197627       3583
      7400   383.34105     -291460.38     -305539.08      1373.4396      1295.7394      29912.326      1.5507272      28484.594      28647.736      32604.649      36.627722      31.666687      115.89996      2628.8816    
WARNING: Inconsistent image flags (src/domain.cpp:815)
SHAKE stats (type/ave/delta/count) on step 7500
Bond:   4   0.957201  0.000320945     7166
Angle:  3   104.52    0.0210757       3583
      7500   383.34105     -291318.99     -305328.05      1289.8002      1309.7357      29873.888      1.551519       28079.902      29371.367      32170.394      36.617387      31.678627      115.82984      2634.025     
WARNING: Inconsistent image flags (src/domain.cpp:815)
SHAKE stats (type/ave/delta/count) on step 7600
Bond:   4   0.957203  0.000209939     7166
Angle:  3   104.52    0.0181171       3583
      7600   383.34105     -291542.8      -305576.75      1362.4504      1261.9632      29295.055      1.55091        28196.747      28326.351      31362.066      36.624327      31.692689      115.80196      2609.8175    
WARNING: Inconsistent image flags (src/domain.cpp:815)
SHAKE stats (type/ave/delta/count) on step 7700
Bond:   4   0.957199  0.000213265     7166
Angle:  3   104.52    0.0195634       3583
      7700   383.34105     -290941.9      -304971.25      1324.9815      1294.8399      30352.581      1.5503926      29182.274      29492.004      32383.464      36.643748      31.693324      115.77689      2621.7915    
WARNING: Inconsistent image flags (src/domain.cpp:815)
SHAKE stats (type/ave/delta/count) on step 7800
Bond:   4   0.957198  0.000571143     7166
Angle:  3   104.52    0.0431047       3583
      7800   383.34105     -291506.18     -305467.82      1324.1019      1228.0065      29612.877      1.5512263      28798.127      28592.811      31447.693      36.650804      31.675967      115.75579      2625.1188    
WARNING: Inconsistent image flags (src/domain.cpp:815)
SHAKE stats (type/ave/delta/count) on step 7900
Bond:   4   0.957201  0.000302446     7166
Angle:  3   104.52    0.0188928       3583
      7900   383.34105     -291375.62     -305388.49      1356.3348      1247.0056      30515.989      1.5521786      28897.277      29295.32       33355.372      36.657559      31.656146      115.73586      2625.2781    
WARNING: Inconsistent image flags (src/domain.cpp:815)
SHAKE stats (type/ave/delta/count) on step 8000
Bond:   4   0.957199  0.000229076     7166
Angle:  3   104.52    0.0219973       3583
      8000   383.34105     -291318.32     -305314.86      1319.9074      1267.1056      30162.122      1.5521983      28426.141      29404.426      32655.8        36.661265      31.652805      115.73491      2660.5333    
WARNING: Inconsistent image flags (src/domain.cpp:815)
SHAKE stats (type/ave/delta/count) on step 8100
Bond:   4   0.957197  0.000423063     7166
Angle:  3   104.52    0.0191793       3583
      8100   383.34105     -291278.92     -305375.65      1375.5328      1311.6688      30473.021      1.553768       29333.493      30183.99       31901.58       36.638412      31.635939      115.75179      2624.9512    
WARNING: Inconsistent image flags (src/domain.cpp:815)
SHAKE stats (type/ave/delta/count) on step 8200
Bond:   4   0.957202  0.000345773     7166
Angle:  3   104.52    0.0271421       3583
      8200   383.34105     -291314.63     -305331.97      1307.8247      1299.9895      30287.6        1.5543006      28206.351      28404.485      34251.965      36.627226      31.64724       115.70613      2640.3485    
WARNING: Inconsistent image flags (src/domain.cpp:815)
SHAKE stats (type/ave/delta/count) on step 8300
Bond:   4   0.957203  0.000229578     7166
Angle:  3   104.52    0.0213113       3583
      8300   383.34105     -291503.53     -305572.88      1430.0943      1229.7204      30365.912      1.5527152      28702.543      29207.925      33187.269      36.635844      31.670453      115.71215      2614.6531    
WARNING: Inconsistent image flags (src/domain.cpp:815)
SHAKE stats (type/ave/delta/count) on step 8400
Bond:   4   0.957199  0.000511092     7166
Angle:  3   104.52    0.0302134       3583
      8400   383.34105     -291159.97     -305145.86      1289.2928      1287.0709      30203.67       1.5523432      28787.226      28985.83       32837.954      36.644736      31.671823      115.70679      2625.9704    
WARNING: Inconsistent image flags (src/domain.cpp:815)
SHAKE stats (type/ave/delta/count) on step 8500
Bond:   4   0.957199  0.000275046     7166
Angle:  3   104.52    0.0409584       3583
      8500   383.34105     -291415.28     -305450.58      1372.6626      1253.1086      30293.319      1.5526445      28977.383      28069.201      33833.373      36.643662      31.674189      115.67908      2605.6622    
WARNING: Inconsistent image flags (src/domain.cpp:815)
SHAKE stats (type/ave/delta/count) on step 8600
Bond:   4   0.957199  0.000507385     7166
Angle:  3   104.52    0.0312451       3583
      8600   383.34105     -291363.89     -305374.06      1337.3583      1263.283       29505.253      1.5528935      26303.143      29678.316      32534.299      36.645312      31.66418       115.69188      2618.6726    
WARNING: Inconsistent image flags (src/domain.cpp:815)
SHAKE stats (type/ave/delta/count) on step 8700
Bond:   4   0.957199  0.000222319     7166
Angle:  3   104.52    0.0194609       3583
      8700   383.34105     -291016.64     -305053.16      1345.6664      1281.3297      31573.003      1.5547573      29629.473      30079.876      35009.661      36.622334      31.668467      115.61005      2631.9332    
WARNING: Inconsistent image flags (src/domain.cpp:815)
SHAKE stats (type/ave/delta/count) on step 8800
Bond:   4   0.957205  0.000208964     7166
Angle:  3   104.52    0.017504        3583
      8800   383.34105     -291128.77     -305115.25      1379.5138      1197.4407      30515.535      1.5527666      28498.85       29684.804      33362.95       36.629199      31.690721      115.6553       2646.3132    
WARNING: Inconsistent image flags (src/domain.cpp:815)
SHAKE stats (type/ave/delta/count) on step 8900
Bond:   4   0.957203  0.000293955     7166
Angle:  3   104.52    0.0195304       3583
      8900   383.34105     -291484.56     -305550.32      1363.126       1293.1065      30074.996      1.550951       28831.629      29045.559      32347.801      36.643612      31.686714      115.75978      2617.2263    
WARNING: Inconsistent image flags (src/domain.cpp:815)
SHAKE stats (type/ave/delta/count) on step 9000
Bond:   4   0.957204  0.000523301     7166
Angle:  3   104.52    0.022239        3583
      9000   383.34105     -291277.13     -305214.41      1318.5915      1209.165       29947.784      1.5492536      27997.427      28844.514      33001.41       36.666989      31.685678      115.81651      2636.7164    
WARNING: Inconsistent image flags (src/domain.cpp:815)
SHAKE stats (type/ave/delta/count) on step 9100
Bond:   4   0.957195  0.00020438      7166
Angle:  3   104.52    0.0183905       3583
      9100   383.34105     -291643.35     -305570.1       1319.4045      1197.8212      29950.522      1.5500524      28560.235      29138.805      32152.528      36.66967       31.681544      115.76347      2607.341     
WARNING: Inconsistent image flags (src/domain.cpp:815)
SHAKE stats (type/ave/delta/count) on step 9200
Bond:   4   0.957198  0.000573533     7166
Angle:  3   104.52    0.0273453       3583
      9200   383.34105     -291503.49     -305489.44      1339.0232      1237.4036      30364.644      1.5513831      28576.691      29280.641      33236.6        36.65881       31.679085      115.70742      2645.384     
WARNING: Inconsistent image flags (src/domain.cpp:815)
SHAKE stats (type/ave/delta/count) on step 9300
Bond:   4   0.957199  0.000690363     7166
Angle:  3   104.52    0.0412144       3583
      9300   383.34105     -291204.8      -305223.14      1291.2234      1317.5909      29743.215      1.5527088      27816.265      28674.924      32738.456      36.64157       31.667971      115.70361      2647.3629    
WARNING: Inconsistent image flags (src/domain.cpp:815)
SHAKE stats (type/ave/delta/count) on step 9400
Bond:   4   0.957203  0.000262957     7166
Angle:  3   104.52    0.0212393       3583
      9400   383.34105     -291459.01     -305625.31      1429.2117      1327.5576      30066.38       1.552105       28068.097      28784.842      33346.203      36.641274      31.663106      115.76734      2603.3979    
WARNING: Inconsistent image flags (src/domain.cpp:815)
SHAKE stats (type/ave/delta/count) on step 9500
Bond:   4   0.957201  0.000551762     7166
Angle:  3   104.52    0.031951        3583
      9500   383.34105     -291352.84     -305259.24      1249.377       1247.4927      29765.14       1.5508595      27929.145      29207.701      32158.575      36.639406      31.675104      115.82234      2651.0924    
WARNING: Inconsistent image flags (src/domain.cpp:815)
SHAKE stats (type/ave/delta/count) on step 9600
Bond:   4   0.957197  0.000223019     7166
Angle:  3   104.52    0.0194513       3583
      9600   383.34105     -291585.8      -305673.28      1429.6612      1248.2897      30373.286      1.5515849      28733.662      29606.47       32779.727      36.618163      31.68458       115.8007       2652.8926    
WARNING: Inconsistent image flags (src/domain.cpp:815)
SHAKE stats (type/ave/delta/count) on step 9700
Bond:   4   0.957198  0.000860899     7166
Angle:  3   104.52    0.0233128       3583
      9700   383.34105     -291304.64     -305218.11      1265.7131      1238.2283      29631.448      1.5531117      28349.079      28695.494      31849.771      36.609196      31.688211      115.70194      2639.163     
WARNING: Inconsistent image flags (src/domain.cpp:815)
SHAKE stats (type/ave/delta/count) on step 9800
Bond:   4   0.957197  0.000504119     7166
Angle:  3   104.52    0.0271923       3583
      9800   383.34105     -291450.09     -305533.61      1387.8381      1286.1471      30203.067      1.5547461      29743.46       28896.38       31969.362      36.622066      31.676071      115.58397      2655.3661    
SHAKE stats (type/ave/delta/count) on step 9900
Bond:   4   0.957196  0.000304644     7166
Angle:  3   104.52    0.0212736       3583
WARNING: Too many warnings: 101 vs 100. All future warnings will be suppressed (src/thermo.cpp:472)
      9900   383.34105     -291238.72     -305209.32      1296.8784      1264.188       30081.479      1.556117       29486.301      28049.229      32708.909      36.632879      31.659735      115.50763      2664.2707    
SHAKE stats (type/ave/delta/count) on step 10000
Bond:   4   0.957202  0.000209645     7166
Angle:  3   104.52    0.0192742       3583
     10000   383.34105     -291322        -305276.97      1317.0586      1228.3812      30788.126      1.5561732      29332.951      30494.317      32537.112      36.641859      31.649978      115.51075      2636.6857    
Loop time of 3.94375 on 40 procs for 101 steps with 13569 atoms

# --------- Writting the output coordinates and velocities ------------
write_data     TI-rerun.dat pair ij
System init for write_data ...
PPPM initialization ...
  using 12-bit tables for long-range coulomb (src/kspace.cpp:342)
  G vector (1/distance) = 0.28448378
  grid = 48 45 120
  stencil order = 5
  estimated absolute RMS force accuracy = 0.00035349947
  estimated relative force accuracy = 1.0645531e-06
  using double precision KISS FFT
  3d grid and FFT values/proc = 17670 6624
Generated 45 of 45 mixed pair_coeff terms from arithmetic mixing rule
Total wall time: 0:00:04
