LAMMPS data file via write_data, version 2 Aug 2023, timestep = 100000, units = real

13569 atoms
10 atom types
8934 bonds
4 bond types
6023 angles
3 angle types
408 dihedrals
1 dihedral types

0.2981395676325249 36.781681364384056 xlo xhi
1.2320492204611675 32.76248792752909 ylo yhi
-131.60679058720032 162.03987619407715 zlo zhi

Masses

1 15.9994
2 40.0800
3 30.9738
4 15.9994
5 1.0080
6 15.9994
7 1.0080
8 22.9898
9 35.4530
10 40.0800

Pair Coeffs # lj/cut/coul/long

1 0.0699984928 3.0290604000
2 0.1299984877 2.9399690301
3 0.2800057201 3.8308580628
4 0.0800014955 3.2963200383
5 0.0000000000 0.0000000000
6 0.1521000000 3.1507000000
7 0.0460000000 0.2245000000
8 0.0469000000 2.5136000000
9 0.1500000000 4.0445000000
10 0.0701992741 2.9399690301

Bond Coeffs # harmonic

1 430 1.57
2 500 0.94
3 500 0.94
4 450 0.9572

Angle Coeffs # harmonic

1 50 115
2 125 109.47
3 55 104.52

Dihedral Coeffs # harmonic

1 0 1 2

Atoms # full

8965 3764 6 -0.834 0.8071492782953054 15.23760976264481 -9.04577722557265 -2 9 1
3991 1226 7 0.417 3.7860504717072216 10.366928582586663 -6.900132027955252 -11 -2 0
8876 3764 7 0.417 1.226200923311881 14.643953325904123 -9.668845366594866 -2 9 1
8964 3764 7 0.417 0.5100519539194059 15.974754873568777 -9.579253027836003 -2 9 1
11069 926 7 0.417 12.951861185536286 13.942270328276242 -7.170415183005076 2 -1 1
1136 2230 7 0.417 10.161509865650434 15.82399346277958 -7.3475392812461 -14 8 0
9838 2837 7 0.417 16.985693179583574 13.94380093067905 -7.053865341126027 -1 -4 1
1137 2230 6 -0.834 10.728678657003277 16.584482694247946 -7.220175978968712 -14 8 0
1133 2230 7 0.417 11.545649592591635 16.220195452895837 -6.879439234782495 -14 8 0
10018 2888 6 -0.834 6.388510371696976 2.290922797906597 -4.372980286243305 6 8 1
9933 2888 7 0.417 6.681251280524521 2.886351387268883 -3.6830429172303525 6 8 1
4261 346 7 0.417 6.454892501468886 4.46939457597311 -4.891706285857595 -1 1 0
2080 2315 7 0.417 5.269125171390321 6.552996638438975 -5.365758460182079 -2 -4 0
4262 346 6 -0.834 7.008150021243786 5.15954643917344 -4.5258607700506985 -1 1 0
4263 346 7 0.417 7.083930824932787 4.939469865739737 -3.5973834512751353 -1 1 0
1996 2315 7 0.417 5.7168444791105815 7.995360469105705 -5.2605954931386805 -2 -4 0
3988 2480 7 0.417 6.993253125690149 8.495935615918912 -3.6991341597678087 3 6 0
2079 2315 6 -0.834 4.948781258435323 7.452158545218591 -5.437394935443237 -2 -4 0
3206 1297 7 0.417 9.314472582736915 8.406181143105162 -4.546716608379711 4 0 0
3987 2480 6 -0.834 7.4201855893211 7.9922408471058874 -4.3921455341444755 3 6 0
5180 1 1 -0.65 2.935807648359103 2.806631058598744 -0.8369118889167169 1 -1 0
9846 1657 6 -0.834 3.444124093888778 5.3095642549270465 -3.01905720412077 3 14 1
8856 1682 7 0.417 7.278306116032388 4.507053599920686 -1.3235144361984226 -4 -1 1
8939 1682 6 -0.834 7.015406538315423 3.741908514656245 -1.8350625499429327 -4 -1 1
5272 1 2 1.5 4.004593613110995 5.127365634277387 -0.625367395689608 1 -1 0
5275 1 3 0.886328125 6.627697615738059 6.936680130476507 -0.20202068250065963 1 -1 0
5282 1 1 -0.65 7.652766089130258 8.114391558428043 -0.18142020957608906 1 -1 0
5277 1 1 -0.65 5.886824158768834 6.817645362983265 -1.5380301682972402 1 -1 0
5278 1 5 0.4 5.778850966634043 7.624064672009765 -1.7913954220343271 1 -1 0
5274 1 1 -0.625 7.471002244150666 5.656358400112807 -0.3178010562057523 1 -1 0
5270 1 1 -0.75 3.558263952148325 7.426806687953937 -0.14037348869430843 1 -1 0
9477 2631 7 0.417 9.072873306906486 4.689643492358089 -3.4707380260694265 0 -1 1
8940 1682 7 0.417 7.38883898065165 2.9976970271555934 -1.3628943337708677 -4 -1 1
5268 1 3 0.886328125 2.3542179875543026 8.366057769494773 -0.37073830310833955 1 -1 0
9844 1657 7 0.417 2.6070646276751956 4.846931340399738 -2.9796785289939294 3 14 1
5355 1 5 0.4 2.495908154028747 8.782599300828316 -2.4636154421019114 1 -1 0
9849 1657 7 0.417 3.263496897667629 6.088082300638928 -3.5458673732692887 3 14 1
5179 1 3 0.886328125 1.6287584975115221 3.355910973434692 -0.1518692894878768 1 -1 0
5266 1 1 -0.75 1.6059002406928258 4.902962210193596 -0.31753635060377405 1 -1 0
5182 1 5 0.4 3.034651815162289 1.7979644503357868 -0.927797734476286 1 -1 0
11409 2024 6 -0.834 2.506478150638729 8.196755591871836 -4.304275653195901 7 -1 1
3423 2480 7 0.417 7.2849333704025545 7.078104635472069 -4.142535281608815 3 6 0
3171 447 6 -0.834 0.7281615442090793 5.517393127225559 -3.9570646404396967 4 6 0
3170 447 7 0.417 0.7017851547578381 4.789678060038538 -4.578337681822418 4 6 0
11410 2024 7 0.417 3.2181902487158474 8.331443748221282 -4.930033560943912 7 -1 1
5265 1 1 -0.75 1.0525905000846323 7.628323482045783 -0.10733854104290685 1 -1 0
10020 2888 7 0.417 5.911202429371799 1.602733930688655 -3.909494221820154 6 8 1
11405 2024 7 0.417 1.9259350844981786 7.567820072139002 -4.732827119915143 7 -1 1
5176 1 1 -0.75 0.30276478295725123 2.6608060580936943 -0.6147977877657809 1 -1 0
5195 1 1 -0.75 10.534139918886767 1.417974987917892 -0.627204431219468 0 -1 0
12227 1928 7 0.417 9.698486179407885 4.906043967845374 -5.751416492058027 -4 12 1
12224 1928 6 -0.834 10.258737156103894 5.466566982116228 -6.288239679424848 -4 12 1
12225 1928 7 0.417 9.752961483150052 6.270933692147782 -6.404130025556512 -4 12 1
3856 1297 6 -0.834 10.15747542583543 8.849764801856537 -4.640677019475902 4 0 0
9479 2631 6 -0.834 9.87734709214659 4.73960958136435 -2.9544303521357733 0 -1 1
5887 1 5 0.4 10.435828099478186 5.954985720956236 -1.8187207777764627 0 -1 0
5371 1 1 -0.65 10.61171818944224 6.457688720877588 -1.0916585242904944 0 -1 0
9480 2631 7 0.417 9.61943934103266 4.449240214333094 -2.079549986062858 0 -1 1
5197 1 1 -0.75 9.880072936397742 3.913545637325327 -0.6349941464031872 0 -1 0
4208 344 7 0.417 12.285544488794734 8.566128027652221 -4.954955472598812 -8 11 0
5117 1 3 0.886328125 10.840879622440552 2.839262900621671 -0.14628577928269237 0 -1 0
9801 1887 7 0.417 12.994074799076046 5.366428738889201 -4.978435963024523 -8 7 1
9878 1887 6 -0.834 13.798680020279251 5.507587289144834 -4.4795037283855805 -8 7 1
9880 1887 7 0.417 13.99097783205425 4.655484236451853 -4.088113110876478 -8 7 1
4210 344 6 -0.834 13.135629658027419 8.26418563324349 -5.275011186663647 -8 11 0
2459 1225 7 0.417 16.48905259341351 8.62271191857528 -5.20603317745811 -5 -4 0
2460 1225 6 -0.834 16.22556337048162 7.904960519235672 -4.630141105017529 -5 -4 0
3009 1225 7 0.417 17.045586590838873 7.586942523294023 -4.25241838778166 -5 -4 0
5214 1 10 1.65 14.337416832612504 7.493764146722504 -3.5205243470935557 0 -1 0
207 3038 6 -0.834 18.433798115106388 6.418195446271484 -2.9560837653513943 4 4 1
5286 1 3 0.886328125 11.346557621203583 7.744238572357882 -1.3744780480819259 0 -1 0
5135 1 5 0.4 16.25603311500605 2.75354873267222 -1.3242569628160652 0 -1 0
5119 1 1 -0.65 12.273782589042694 2.9515590828441947 -0.6269148859662153 0 -1 0
5832 1 1 -0.625 12.062734697247109 8.282131429850892 -0.1060171219001802 0 -1 0
5130 1 5 0.4 16.488168389655417 4.527868641960253 0.28257457429342026 0 -1 0
5778 1 5 0.4 12.932367129540442 5.305006172270673 0.31124874437068684 0 -1 0
5776 1 1 -0.65 13.528851012173119 4.821074991720037 -0.15905398917681168 0 -1 0
5284 1 1 -0.625 12.425870767833084 7.472201799635922 -2.4755335118459243 0 -1 0
5208 1 1 -0.625 14.582734944521764 6.355951876738952 -1.8966917527717158 0 -1 0
5301 1 1 -0.65 16.67322572562593 7.857065871131288 -1.4624485966473344 0 -1 0
5300 1 5 0.4 17.370049789800706 7.785438633789265 -0.8520942368229214 0 -1 0
5210 1 3 0.886328125 14.801345218722094 5.642822660223644 -0.4419691877232026 0 -1 0
5209 1 1 -0.65 16.14092478852821 4.708503855263892 -0.4509484439893754 0 -1 0
11028 3753 7 0.417 11.38073463155792 2.8649872892695734 -4.105597373243256 -4 2 1
5120 1 5 0.4 12.839649309718089 3.8599321792644776 -0.5807975088846717 0 -1 0
11006 953 7 0.417 12.583756929381678 1.2428063396115034 -3.7594080793110436 2 -3 1
5133 1 1 -0.65 15.77272622433444 1.8836375505073093 -1.6772149618103356 0 -1 0
767 3038 7 0.417 18.24330968658187 5.838080597873221 -2.218909290128977 4 4 1
1210 2043 7 0.417 18.21336819116806 3.165946819485283 -2.8670731357443344 3 -5 1
4212 344 7 0.417 13.014935073523027 8.164558380250984 -6.219338478475265 -8 11 0
5291 1 1 -0.65 10.442373786169021 9.008236311122964 -1.747599273854405 0 -1 0
5290 1 5 0.4 10.17182065387389 8.900065602416678 -2.5926282223453256 0 -1 0
11029 3753 7 0.417 11.234512851905373 2.9035065180071795 -5.611939533066831 -4 2 1
11030 3753 6 -0.834 11.885893624640858 2.8100778052245055 -4.91679799024881 -4 2 1
11005 953 7 0.417 14.00999663655424 1.3113802435674735 -3.2563455962324213 2 -3 1
13375 3012 7 0.417 1.7049663139533324 13.362559723152346 -5.858923619809417 7 -7 1
1906 22 7 0.417 7.860941638941146 11.661523739191155 -3.0394371499434385 3 0 0
3990 1226 6 -0.834 3.839207747367569 10.936527366401464 -6.132684174019758 -11 -2 0
3989 1226 7 0.417 4.25585897952524 11.735627803114566 -6.455307311559011 -11 -2 0
13372 3012 7 0.417 3.1243693237479886 13.825704144708668 -6.109379103333794 7 -7 1
8469 702 6 -0.834 5.224286767038943 13.814537274952553 -5.803906090459137 -3 -6 1
13374 3012 6 -0.834 2.3111713203938504 13.59948366765327 -6.560799938426783 7 -7 1
8467 702 7 0.417 5.813314739310898 14.271117838276476 -6.4045952063158325 -3 -6 1
2927 1336 7 0.417 7.7280870498750165 16.411471478510983 -6.320922117612241 2 -6 0
1905 22 6 -0.834 7.977642408301458 11.012722205243115 -3.733470837177478 3 0 0
1904 22 7 0.417 7.167334387014862 11.056015590371043 -4.241186153829446 3 0 0
8468 702 7 0.417 5.7854973251953945 13.542963948226063 -5.077587819581055 -3 -6 1
10738 2029 6 -0.834 5.412004543735224 9.306939230450398 -2.793436646837023 1 -1 1
2334 2253 7 0.417 2.228239807580964 11.56451248435988 -4.091792281186343 7 1 0
5354 1 1 -0.65 2.303993812096465 9.19543730591799 -1.6901471781094415 1 -1 0
10657 2029 7 0.417 5.429755260046089 10.014041793465147 -2.148505593566142 1 -1 1
2414 2253 6 -0.834 3.1032603519164024 11.436857479509586 -3.7253342078352603 7 1 0
2413 2253 7 0.417 3.647831443041958 11.207949135742453 -4.478521040172723 7 1 0
2849 1336 7 0.417 8.359785332095536 15.083406747739547 -5.961576131910718 2 -6 0
3439 3242 7 0.417 8.9680898696925 14.256619482172246 -3.19167984526797 -3 1 0
11453 3698 6 -0.834 5.904797320262507 13.233714153726398 -3.2887794881011985 -1 -13 1
10739 2029 7 0.417 4.7167883286777315 9.555255348306888 -3.4027486601871146 1 -1 1
5366 1 5 0.4 7.791522659112712 9.776565362105206 -0.7708374701892637 1 -1 0
3441 3242 7 0.417 7.473571461925249 14.382750487339495 -2.985665183345901 -3 1 0
5365 1 1 -0.65 7.600908536044587 10.745498601510445 -0.7728250477965446 1 -1 0
5362 1 1 -0.75 5.182896381802407 11.102192948256716 -1.3246745583275015 1 -1 0
5364 1 3 0.886328125 6.234174586202727 11.165155557774991 -0.2484812997260235 1 -1 0
11161 2627 7 0.417 4.045735328146848 15.570876689627015 -1.8528437799006667 2 -7 1
5363 1 1 -0.75 6.259474385944829 12.595561415576011 0.24832998488727753 1 -1 0
3440 3242 6 -0.834 8.264802797530455 14.020794487906166 -2.586681764474946 -3 1 0
5370 1 2 1.5 8.677084019695355 13.023589752175365 -0.2121899365123454 1 -1 0
5528 1 5 0.4 5.93981218074843 15.245929329886918 -0.9441779547537692 1 -1 0
5530 1 1 -0.65 6.70342325123352 15.14047476421111 -0.4326509152263043 1 -1 0
5450 1 1 -0.625 9.12113246493243 15.446031054232328 0.33266887695378955 1 -1 0
5452 1 3 0.886328125 7.812408521082909 16.176683656257858 -0.22683864487200367 1 -1 0
5941 1 1 -0.75 2.5102487450983975 15.910391731838448 -0.6266191977036328 1 -1 0
5356 1 2 1.5 2.985106142844846 11.47678610582902 -0.47049056430179803 1 -1 0
5353 1 1 -0.75 3.7969968853435954 13.748129517285403 0.087585713738207 1 -1 0
11450 3698 7 0.417 5.227019997950862 13.810335630267941 -2.9361139108100076 -1 -13 1
11456 3698 7 0.417 5.868105967632071 12.453653394229903 -2.7352415369272194 -1 -13 1
5352 1 3 0.886328125 2.347740171852733 14.347559966565106 -0.1924876617964344 1 -1 0
11247 2627 6 -0.834 4.921552740732133 15.596827897964497 -2.2382247060155294 2 -7 1
5431 1 5 0.4 0.9690624272716493 13.558116997357141 -1.6693898615712897 1 -1 0
5432 1 1 -0.65 1.8159450828342751 13.39263890079355 -1.3708383035440193 1 -1 0
11245 2627 7 0.417 4.815572887815335 16.107663484949395 -3.040758543625685 2 -7 1
3957 3534 7 0.417 0.922320535800684 15.482020524987828 -6.294709659677764 5 4 0
4507 3534 6 -0.834 1.096399866521108 16.166035274247236 -5.648129681339157 5 4 0
2400 17 7 0.417 0.9945418378820174 13.775144976490347 -3.8722246341934294 -5 -6 0
4769 3454 7 0.417 1.0471325504830917 15.56404365484329 -2.3414638969310886 2 3 0
475 3189 6 -0.834 0.37930274292963184 11.707322412753067 0.5243871705423544 5 -1 0
2926 1336 6 -0.834 7.8067049882567865 15.505300513921233 -6.6191129567060045 2 -6 0
4035 3534 7 0.417 0.50601295286645 15.965578681037202 -4.921832754452694 5 4 0
3682 1271 7 0.417 3.2344927594661628 16.420770542026826 -5.12630041444983 -2 1 0
3681 1271 6 -0.834 4.081375015132451 16.197289527803175 -4.740172373882373 -2 1 0
3761 1271 7 0.417 4.299021579325599 15.344383592600906 -5.116239374982754 -2 1 0
2399 17 6 -0.834 0.777703523023935 13.138438939034494 -4.5532766497765635 -5 -6 0
9755 2837 7 0.417 18.042097487577603 14.739086253052449 -6.316664723010561 -1 -4 1
12564 2200 7 0.417 14.761560038361257 12.517037307272357 -4.925816324740623 8 0 0
2100 130 7 0.417 18.35966922488475 12.218373917459601 -5.414300407308772 3 1 0
13264 971 7 0.417 17.542183412738467 13.620740572157318 -3.1075534830718254 1 4 1
5304 1 1 -0.625 14.802956595530278 9.249470567512937 -2.472753642331952 0 -1 0
5303 1 3 0.886328125 15.98132129357462 9.309714812192476 -1.4642273782291682 0 -1 0
3764 1297 7 0.417 9.93006969397143 9.753441941234541 -4.8595359017676145 4 0 0
13112 858 7 0.417 18.39568842676505 9.680859363478131 -4.412516384106112 -2 -5 1
5840 1 1 -0.625 15.249397462907934 9.712077662977558 -0.08367933860833432 0 -1 0
9198 3677 7 0.417 16.573734294260884 16.279985171858385 -3.8618694789591927 -1 7 1
11067 926 6 -0.834 12.55933131127606 14.455155429014921 -6.463934256184672 2 -1 1
5285 1 5 0.4 11.111576532487883 11.922325878427918 -3.069739826499159 0 -1 0
8820 1667 7 0.417 10.26901588430054 10.298357555963966 -0.3389880009509625 -4 1 1
8818 1667 6 -0.834 10.042638980661835 10.98991150975023 0.2829066978918604 -4 1 1
5288 1 1 -0.65 10.78864209982946 12.418282382785424 -2.266728725865363 0 -1 0
11066 926 7 0.417 13.027597356084412 14.177109375088007 -5.6767465868154545 2 -1 1
12561 2200 6 -0.834 14.899502585515137 13.456954750262629 -5.043168482489747 8 0 0
12560 2200 7 0.417 15.7941360481258 13.52851002580344 -5.375974636253616 8 0 0
9471 1886 7 0.417 10.810981507310204 15.069048729681487 -3.440904899820424 1 -1 1
9199 3677 7 0.417 17.88722184499456 16.63988209836397 -3.200687874065551 -1 7 1
9472 1886 6 -0.834 10.202564833621295 15.15692604121909 -4.174631152071996 1 -1 1
9470 1886 7 0.417 10.663009320184138 15.713277432555875 -4.802890210339882 1 -1 1
5889 1 1 -0.75 11.214166704135476 13.817499700668161 -0.11837045877385322 0 -1 0
5957 1 10 1.65 11.401222266902595 16.179289348821268 -0.27713587611609114 0 -1 0
8661 616 6 -0.834 14.775536545321831 15.906260456187638 -3.6357097898952873 7 4 1
8581 616 7 0.417 14.714922432228253 15.126689893189516 -4.187833418704486 7 4 1
3937 455 6 -0.834 13.9899298307818 15.738638272326174 -0.9383510017388517 4 2 0
3940 455 7 0.417 14.132709210538636 15.394316840050253 -1.8199993197583808 4 2 0
9756 2837 6 -0.834 17.489602214922794 13.961171445499678 -6.240218391159445 -1 -4 1
9200 3677 6 -0.834 17.463975264599995 16.572887204221093 -4.056620648055855 -1 7 1
13191 971 7 0.417 16.859156816068506 12.319913696805266 -2.742515197106229 1 4 1
470 119 6 -0.834 13.680722650213871 11.392052242506507 -3.4839496791550744 6 0 0
466 119 7 0.417 13.98978800690881 10.50636755609075 -3.293460112015026 6 0 0
5843 1 5 0.4 17.960810427159856 10.231158153816464 -1.8144234894515705 0 -1 0
5305 1 1 -0.65 17.08908988760302 10.42289651926101 -1.8307015398490023 0 -1 0
5373 1 3 0.886328125 11.721743950074709 13.4520587871927 -1.5475049159476555 0 -1 0
5372 1 1 -0.75 11.695813057212247 14.905515192242746 -2.1526776526557114 0 -1 0
11564 2997 7 0.417 15.315417238589452 11.388910515673787 -0.31959884428044916 -4 -2 1
472 119 7 0.417 13.544890039888417 11.789058453104255 -2.623611149087367 6 0 0
11562 2997 7 0.417 14.666384188429193 12.586954019729925 -0.9794299709586483 -4 -2 1
11561 2997 6 -0.834 15.364937200315659 12.343396853609045 -0.3720162969312071 -4 -2 1
5376 1 1 -0.75 13.106631824914924 12.907925333829809 -1.4215416219402925 0 -1 0
13192 971 6 -0.834 17.2823993323675 13.086897506792576 -2.3567072697338745 1 4 1
5387 1 10 1.65 17.49987383798606 13.065252626618918 -0.13775752584865586 0 -1 0
5383 1 1 -0.625 17.201660854481855 15.144466751389292 -0.25159547095228163 0 -1 0
5381 1 1 -0.65 18.40645937377401 16.816788717709294 -1.717575292866485 0 -1 0
5384 1 3 0.886328125 18.062561205545535 16.478297546269943 -0.20561902397994913 0 -1 0
2097 130 6 -0.834 18.4691070145364 11.61897260189087 -4.676068007495076 3 1 0
4015 455 7 0.417 14.860642664511893 16.000355639620448 -0.6389988252937826 4 2 0
8659 616 7 0.417 14.122963594136202 16.506792262095843 -3.9959250603089487 7 4 1
5811 1 10 1.65 0.3218830782228679 6.285085126762826 4.6251512908116865 1 -1 0
5819 1 1 -0.625 5.7175226561504395 6.908834955577949 1.054980618137023 1 -1 0
5823 1 5 0.4 7.977270839812886 8.53851791238423 0.6926448404907717 1 -1 0
5757 2447 6 -0.834 5.3478692459967725 3.6004334655747603 0.7404779610500896 1 -1 0
5185 2447 7 0.417 6.264454561251545 3.3426849294198853 0.8389031060419256 1 -1 0
5756 2447 7 0.417 4.870494781214065 3.020757433912266 1.3340567682785718 1 -1 0
5751 1 1 -0.75 1.8807296263899025 2.930359382864292 1.35666888285337 1 -1 0
5812 1 1 -0.8 0.6226131628400363 4.701936895659024 2.876695743536459 1 -1 0
6263 1 1 -0.8 0.9564257084582374 7.530179347679752 6.313058165493487 1 -1 0
5818 1 10 1.65 4.638539657905649 8.634398206066848 1.5564531047399726 1 -1 0
5765 1 1 -0.8 8.573186611159228 1.9966486927185891 3.297486493452027 1 -1 0
5814 1 1 -0.8 2.4142206325702804 5.984477218067199 4.318965481849432 1 -1 0
5815 1 3 0.886328125 2.8093268317428124 6.594899672745992 3.0200978405570424 1 -1 0
5817 1 1 -0.8 3.9108577016984483 7.673261419605024 3.226213873541724 1 -1 0
5824 1 3 0.886328125 7.780060966415641 8.211402883150893 3.112363397260566 1 -1 0
5886 1 1 -0.8 8.457835591906024 9.036362661038588 2.036451251363843 1 -1 0
5826 1 1 -0.8 8.48977877098094 8.647094964603678 4.421817523604005 1 -1 0
5821 1 1 -0.8 6.293929041872669 8.519112554736726 3.2000156697303055 1 -1 0
5825 1 1 -0.8 8.076820947740995 6.704953253647698 2.8965384607789133 1 -1 0
6325 1 10 1.65 4.663511770869406 8.799616002118157 4.892550906873481 1 -1 0
5827 1 2 1.5 9.343641033752508 6.080265554643689 4.697102721344578 0 -1 0
6269 1 1 -0.8 5.478904467451001 6.252415246664424 5.245693136601261 1 -1 0
5820 1 2 1.5 5.959541475425129 5.422201123657536 3.0418925069674287 1 -1 0
5816 1 1 -0.8 3.4047681938542875 5.501041259444801 2.1342903951003507 1 -1 0
5763 1 1 -0.8 7.692625314480863 4.120359198877899 4.406536613095028 1 -1 0
5822 1 1 -0.8 7.4531836269015805 3.9439923974547706 1.9616372203012986 1 -1 0
5758 1 4 -1.1 4.484038999883178 3.8515737133962373 4.16228717243726 1 -1 0
5764 1 3 0.886328125 8.316677108833845 3.531446534658249 3.2059088456225027 1 -1 0
5752 1 10 1.65 2.5326932718990096 3.8139093740639005 3.162195064603168 1 -1 0
5759 1 5 0.2 5.073439776499608 3.090817144830328 4.124514841916977 1 -1 0
6216 1 2 1.5 7.312009870160863 3.6039848948192743 6.635282743136742 1 -1 0
6211 1 4 -1.1 4.899702613069995 3.545525894388558 7.612822401424609 1 -1 0
6267 1 1 -0.8 3.460314576014919 7.847336433855452 6.435060991474899 1 -1 0
6270 1 1 -0.8 5.540248664085284 6.353935230951411 7.692167024477328 1 -1 0
6271 1 1 -0.8 6.412004960683919 8.25151792356056 6.515796197770783 1 -1 0
6272 1 3 0.886328125 6.330094941922067 6.729743102111434 6.47371334501895 1 -1 0
6273 1 1 -0.8 7.724678950017608 6.031173432898236 6.52180082926418 1 -1 0
6268 1 2 1.5 3.7181999337799514 5.153101870666388 6.1723450210856186 1 -1 0
6205 1 1 -0.8 1.9942519608138751 2.812719333334028 4.849710640749777 1 -1 0
6265 1 3 0.886328125 2.105504380615873 8.542316341626842 6.42425351965673 1 -1 0
6206 1 1 -0.8 2.0100236074853055 2.913757569666835 7.32997133787714 1 -1 0
6219 1 1 -0.8 9.41200485851877 2.123994599349351 6.646165646174097 0 -1 0
5813 1 1 -0.8 1.5414025952868866 7.162697954124905 2.4192376343424655 1 -1 0
6207 1 2 1.5 3.703955966088241 1.564246343814506 6.3255762477861595 1 -1 0
6203 1 3 0.886328125 1.151888586095227 3.2532477235426276 6.116385004331391 1 -1 0
6264 1 1 -0.8 0.9213287288060987 4.753100863825555 6.172527206484375 1 -1 0
6213 1 1 -0.8 6.451021153591605 1.7107048018736097 5.447786627815589 1 -1 0
5191 1 1 -0.625 7.623038076808053 1.2778676983187802 0.7409314082690059 1 -1 0
5755 1 1 -0.8 4.083323241510122 1.4336057665711264 2.360307298094682 1 -1 0
5810 1 10 1.65 0.3517796884513373 5.939476881199525 1.027823626444757 1 -1 0
5213 1 1 -0.625 15.015803830138672 6.734923658057071 0.7393758232806249 0 -1 0
6162 1 1 -0.8 15.956514640254008 1.5270294379637201 4.980871969569392 0 -1 0
5829 1 2 1.5 9.523432189862062 5.554492770427491 1.0494708601445382 0 -1 0
5702 1 1 -0.75 10.799387418715627 2.788244584155703 1.3940764897778308 0 -1 0
5838 1 10 1.65 13.903706893892043 8.577027433231105 1.1998670971497347 0 -1 0
5828 1 1 -0.8 9.625865004643972 4.2212970725179515 3.135500394731224 1 -1 0
5709 1 10 1.65 15.174641157803704 1.7333325684506922 2.841253629340372 0 -1 0
6222 1 1 -0.8 10.351908694178553 7.291064611004099 6.383961543472282 0 -1 0
6221 1 1 -0.8 10.007154038215413 4.584997675597888 6.393092262125265 0 -1 0
6151 1 3 0.886328125 10.564874653692712 3.106281549330018 6.31422661969421 0 -1 0
5768 1 1 -0.8 10.751143100913536 7.473732372525547 2.9566868928409917 0 -1 0
6154 1 1 -0.8 11.03447437338756 2.719690758311971 4.863102225614142 0 -1 0
5707 1 5 0.2 14.296481026897924 3.253682621674129 1.754704634828414 0 -1 0
5703 1 10 1.65 11.727693808233736 3.6701623267674233 3.0234222339493044 0 -1 0
6157 1 4 -1.1 13.928046966024471 3.3253863352663084 5.596959834728921 0 -1 0
5708 1 4 -1.1 13.916478927444437 3.530901311170515 2.5672749196764357 0 -1 0
5770 1 1 -0.8 12.021943647045658 5.466814466530088 4.159173747654961 0 -1 0
5769 1 1 -0.8 11.791174799734494 5.452508670344044 1.720806682947 0 -1 0
5771 1 3 0.886328125 11.94696640433056 6.44285801974716 2.9112953104267376 0 -1 0
5712 1 1 -0.8 16.91218104727747 4.4349604992592715 1.6096010797947429 0 -1 0
5773 1 1 -0.8 13.333050984201638 7.2440397333905 2.756322748135034 0 -1 0
5775 1 2 1.5 15.154576821222264 5.788611120511637 2.9037118904204817 0 -1 0
6228 1 1 -0.8 14.526293113841053 6.464047195942763 5.146990207815861 0 -1 0
5774 1 2 1.5 13.724828440635866 8.769286214828679 4.5233615287017415 0 -1 0
5780 1 3 0.886328125 16.91707379860029 8.418057065669213 2.957387345989531 0 -1 0
5711 1 1 -0.8 16.640128007524602 3.972253534391492 4.137582942468896 0 -1 0
5777 1 1 -0.8 15.438897031666452 8.76991255737914 2.9160368543091693 0 -1 0
5781 1 1 -0.8 17.45727075527188 8.675812180077607 4.393319861261972 0 -1 0
5779 1 1 -0.8 17.217440205549714 6.910903514793734 2.565020003489309 0 -1 0
6159 1 5 0.2 14.013508438193657 3.8058022320865765 4.806190806626489 0 -1 0
5713 1 3 0.886328125 17.425433286875023 3.6705431860590902 2.8453798004328235 0 -1 0
6223 1 3 0.886328125 11.301370798090193 8.469395615506242 6.341964260240559 0 -1 0
6153 1 1 -0.8 11.77264540751064 2.922879826396752 7.333939584297553 0 -1 0
6165 1 1 -0.8 18.184623600782032 2.804393908639532 6.090161836169727 0 -1 0
6163 1 10 1.65 16.18354997629644 3.7268107031222475 6.156102828081799 0 -1 0
6226 1 2 1.5 12.690483985462455 5.426104968599899 6.429708282728853 0 -1 0
6225 1 1 -0.8 12.728932352897864 7.924201202882406 6.610626898534548 0 -1 0
6231 1 1 -0.8 16.77088759516885 5.8471192719138765 6.130609030601875 0 -1 0
6229 1 3 0.886328125 15.479375025701836 6.581433190773852 6.366701184574367 0 -1 0
6230 1 1 -0.8 15.825961236702783 8.022159384192996 6.757499988068446 0 -1 0
6227 1 1 -0.8 14.7139509816917 6.035331326052389 7.571400976687414 0 -1 0
5714 1 1 -0.8 17.594879505212116 2.1875469820772704 2.5403315298473785 0 -1 0
6160 1 1 -0.8 15.700881511490156 2.002226763142591 7.264113111967021 0 -1 0
6155 1 10 1.65 13.061907825935524 1.5460864347815146 6.364374249294002 0 -1 0
5783 1 10 1.65 18.452885579788862 5.936671758839215 1.1813746225746797 0 -1 0
5710 1 1 -0.625 15.26201477378831 1.5935354135700392 0.7273886074706581 0 -1 0
474 3189 7 0.417 0.43068631185546025 12.052151517391446 1.415845092531299 5 -1 0
5939 1 2 1.5 0.6806236615779341 16.469833541109804 1.1742686216787206 1 -1 0
5874 1 4 -1.1 0.3228915685866088 11.687121452100774 3.364474718874959 1 -1 0
5877 1 1 -0.75 2.50885481878824 9.352452393413696 0.7914212722237437 1 -1 0
5883 1 1 -0.75 5.705634350786877 10.232460537191047 0.8849965883790389 1 -1 0
6317 1 4 -1.1 0.3149141324799004 11.546034562234656 6.658373171994754 1 -1 0
5351 1 1 -0.75 1.5406150947144661 14.146720328748618 1.1831027825976435 1 -1 0
6380 1 1 -0.8 0.9590181178272157 14.147769566033968 5.313588187092677 1 -1 0
6330 1 10 1.65 8.269255403566307 9.493746130586052 6.398558764948547 1 -1 0
5875 1 10 1.65 1.5790455432079555 13.503581121846135 3.1664199970194318 1 -1 0
5876 1 2 1.5 1.4297488529274085 9.657180923461466 2.9189145212182552 1 -1 0
6320 1 1 -0.8 2.0847893184646904 9.396472627111718 7.69697214377868 1 -1 0
5949 1 10 1.65 5.2901756368995 14.29339661418075 1.3247932623894485 1 -1 0
6319 1 1 -0.8 2.1034902067065886 9.457965012759814 5.22613299330331 1 -1 0
5942 1 1 -0.8 2.186483294412331 16.645601860401285 2.846477196267699 1 -1 0
5881 1 1 -0.8 4.26589412844877 10.270842987101366 3.4725496446469606 1 -1 0
6329 1 1 -0.8 6.716157198521144 10.676251818100505 5.40467122273634 1 -1 0
5878 1 1 -0.8 3.1257888606103608 12.126224268816737 4.431041849871633 1 -1 0
5880 1 3 0.886328125 3.8376541356447005 11.729594619492516 3.16786605162946 1 -1 0
5884 1 2 1.5 7.055892041080091 11.03716537521677 3.018059724065523 1 -1 0
5830 1 5 0.2 9.313334663471926 11.359121988104151 4.65937724810837 0 -1 0
5943 1 1 -0.8 3.704055411325773 14.62593278383532 3.369091805732694 1 -1 0
5944 1 3 0.886328125 3.672909503694139 16.174409984534776 3.0708547627075404 1 -1 0
5882 1 1 -0.8 5.130391116464338 12.560275083047584 2.873515884870301 1 -1 0
5947 1 1 -0.8 4.625229214208906 16.4004099847178 1.834689128680509 1 -1 0
5953 1 1 -0.8 8.105404255405642 13.151765285697227 2.2387493649099497 1 -1 0
5954 1 3 0.886328125 7.844875124217485 14.211652542129436 3.26852877596059 1 -1 0
5885 1 1 -0.8 7.2841429114948335 13.574700762496592 4.490066439664133 1 -1 0
5948 1 10 1.65 5.046150945303698 13.793349568432781 4.804606464732416 1 -1 0
5951 1 1 -0.8 6.7987392429712825 15.176819913562623 2.717383608812355 1 -1 0
5955 1 1 -0.8 9.126064426010878 14.880542531153035 3.5606755595092636 1 -1 0
5956 1 10 1.65 9.368858566897167 16.76385568157435 4.643523736475004 0 -1 0
5946 1 1 -0.8 4.248299529802271 16.973675134557638 4.281384943933432 1 -1 0
5879 1 1 -0.8 2.7824833328517817 11.69397854816614 2.0355499782536413 1 -1 0
6383 1 1 -0.8 2.234798582594924 15.96231264464182 6.279689963129272 1 -1 0
6323 1 1 -0.8 4.533604897183205 10.367138700405862 6.687338803863241 1 -1 0
6321 1 10 1.65 2.5289892414483606 11.41464376910111 6.596437483294238 1 -1 0
6327 1 3 0.886328125 5.863600819959813 11.194943217516077 6.597383398936557 1 -1 0
6332 1 4 -1.1 9.067760655267968 11.443422810121481 6.789238023144577 0 -1 0
6331 1 5 0.2 8.864585126359469 11.42553049640588 7.702167836778699 0 -1 0
6384 1 1 -0.8 3.3111276354636825 13.635052375566238 6.295732007575026 1 -1 0
6326 1 1 -0.8 5.753959642292799 12.727461515222492 6.40318441909406 1 -1 0
6394 1 10 1.65 8.074174420116478 13.34191670386418 6.541800774011051 1 -1 0
6388 1 1 -0.8 5.570511066000427 15.307709732173556 6.291902640650477 1 -1 0
6390 1 3 0.886328125 6.771655380075478 16.25846026152434 6.2824630304316145 1 -1 0
6393 1 1 -0.8 8.03593209446955 15.398752502311451 6.546827489985901 1 -1 0
6382 1 3 0.886328125 2.0671734532642754 14.462143181371271 6.420725720812186 1 -1 0
6381 1 1 -0.8 1.3109509146313425 14.331967431055899 7.729590347441842 1 -1 0
5940 1 2 1.5 0.5534991385819026 16.641792196876928 4.679672354389709 1 -1 0
6391 1 1 -0.8 6.9790457503247865 16.959168282042164 4.928001521824939 1 -1 0
5905 1 2 1.5 18.502525720241138 16.714083370845394 4.5441655281685485 0 -1 0
5888 1 4 -1.1 9.531472296435208 11.234719452025338 3.7958480911712797 0 -1 0
8819 1667 7 0.417 10.866603722298574 11.194018261175382 0.7252545771077905 -4 1 1
5312 440 7 0.417 18.188046714172764 10.440283232366427 1.0375536116637818 0 -1 0
5896 1 2 1.5 13.447349676644658 13.739981697372002 0.9626644984080599 0 -1 0
6277 1 1 -0.8 11.303217739810115 9.282101571815375 5.008992428961761 0 -1 0
5831 1 10 1.65 10.444033183574453 9.42173978067121 3.1526689379688264 0 -1 0
5842 1 1 -0.8 17.68739896288331 9.39406504885265 2.025889721485129 0 -1 0
6278 1 1 -0.8 10.919244868199357 9.371453841425666 7.466919539415358 0 -1 0
6288 1 10 1.65 17.404428063193855 9.400620589190325 6.411719255456688 0 -1 0
5890 1 10 1.65 10.330378271711071 13.220178409534814 3.337647104247935 0 -1 0
6333 1 1 -0.8 10.244054979616973 13.53791106321407 5.4954916086207675 0 -1 0
5895 1 1 -0.8 12.582050815267653 15.917612818348509 1.4405883548104441 0 -1 0
5837 1 1 -0.8 12.508945762125913 9.793327337472125 2.5901443813540936 0 -1 0
5891 1 1 -0.8 11.187251607948486 16.709219984989815 3.349298015584111 0 -1 0
6336 1 1 -0.8 10.788083439017653 15.97401293011071 6.131878925967698 0 -1 0
6335 1 3 0.886328125 10.90238329862039 14.451717728762183 6.526754985926999 0 -1 0
6286 1 1 -0.8 15.77058808038964 10.479337022093542 5.153179643387688 0 -1 0
5836 1 3 0.886328125 12.810917988684947 11.328849893740315 2.8121879822447795 0 -1 0
5839 1 1 -0.8 14.330020705540221 11.590367264618134 2.6801758669841433 0 -1 0