LAMMPS data file via write_data, version 2 Aug 2023, timestep = 10000, units = real

13569 atoms
10 atom types
8934 bonds
4 bond types
6023 angles
3 angle types
408 dihedrals
1 dihedral types

0.21898105955356084 36.86083987246365 xlo xhi
1.172279494721021 32.82225765326772 ylo yhi
-42.53883040910309 72.97191601511682 zlo zhi

Masses

1 15.9994
2 40.08
3 30.9738
4 15.9994
5 1.008
6 15.9994
7 1.008
8 22.9898
9 35.453
10 32.1925

PairIJ Coeffs # lj/charmm/coul/long

1 1 0.0699985 3.02906 0.0699985 3.02906
1 2 0.0953923 2.98451 0.0953923 2.98451
1 3 0.14 3.42996 0.14 3.42996
1 4 0.074833 3.16269 0.074833 3.16269
1 5 0 1.51453 0 1.51453
1 6 0.103183 3.08988 0.103183 3.08988
1 7 0.0567444 1.62678 0.0567444 1.62678
1 8 0.0572969 2.77133 0.0572969 2.77133
1 9 0.102468 3.53678 0.102468 3.53678
1 10 0.0712379 2.77738 0.0712379 2.77738
2 2 0.129998 2.93997 0.129998 2.93997
2 3 0.190789 3.38541 0.190789 3.38541
2 4 0.101981 3.11814 0.101981 3.11814
2 5 0 1.46998 0 1.46998
2 6 0.140616 3.04533 0.140616 3.04533
2 7 0.07733 1.58223 0.07733 1.58223
2 8 0.0780828 2.72678 0.0780828 2.72678
2 9 0.139642 3.49223 0.139642 3.49223
2 10 0.0970814 2.73283 0.0970814 2.73283
3 3 0.280006 3.83086 0.280006 3.83086
3 4 0.149669 3.56359 0.149669 3.56359
3 5 0 1.91543 0 1.91543
3 6 0.206371 3.49078 0.206371 3.49078
3 7 0.113491 2.02768 0.113491 2.02768
3 8 0.114596 3.17223 0.114596 3.17223
3 9 0.204941 3.93768 0.204941 3.93768
3 10 0.142479 3.17828 0.142479 3.17828
4 4 0.0800015 3.29632 0.0800015 3.29632
4 5 0 1.64816 0 1.64816
4 6 0.11031 3.22351 0.11031 3.22351
4 7 0.0606636 1.76041 0.0606636 1.76041
4 8 0.0612541 2.90496 0.0612541 2.90496
4 9 0.109546 3.67041 0.109546 3.67041
4 10 0.076158 2.91101 0.076158 2.91101
5 5 0 0 0 0
5 6 0 1.57535 0 1.57535
5 7 0 0.11225 0 0.11225
5 8 0 1.2568 0 1.2568
5 9 0 2.02225 0 2.02225
5 10 0 1.26285 0 1.26285
6 6 0.1521 3.1507 0.1521 3.1507
6 7 0.0836457 1.6876 0.0836457 1.6876
6 8 0.08446 2.83215 0.08446 2.83215
6 9 0.151046 3.5976 0.151046 3.5976
6 10 0.10501 2.8382 0.10501 2.8382
7 7 0.046 0.2245 0.046 0.2245
7 8 0.0464478 1.36905 0.0464478 1.36905
7 9 0.0830662 2.1345 0.0830662 2.1345
7 10 0.0577492 1.3751 0.0577492 1.3751
8 8 0.0469 2.5136 0.0469 2.5136
8 9 0.0838749 3.27905 0.0838749 3.27905
8 10 0.0583114 2.51965 0.0583114 2.51965
9 9 0.15 4.0445 0.15 4.0445
9 10 0.104283 3.2851 0.104283 3.2851
10 10 0.0724992 2.5257 0.0724992 2.5257

Bond Coeffs # harmonic

1 430 1.57
2 500 0.94
3 500 0.94
4 450 0.9572

Angle Coeffs # harmonic

1 50 115
2 125 109.47
3 55 104.52

Dihedral Coeffs # harmonic

1 0 1 2

Atoms # full

3428 2166 7 0.417 9.02728801169683 6.5469622758497374 -40.39609939290569 8 3 0
3780 3232 6 -0.834 3.0411711694961645 3.1893879697064884 -35.16267848059609 -9 5 0
3874 3232 7 0.417 3.9172129593113656 2.860340795652865 -35.36395690974709 -9 5 0
12819 648 6 -0.834 8.2293584582993 4.316243777559111 -38.30183805764598 8 0 1
11406 3647 7 0.417 3.3415651400003794 4.170923668833351 -40.27227074057109 -1 -1 1
3430 2166 6 -0.834 8.531207390790968 5.745264178351997 -40.561674076436596 8 3 0
2918 3392 6 -0.834 5.62159067008887 4.841881585172374 -38.34321769282126 3 0 0
2836 3392 7 0.417 5.2044596853821945 4.068571352087579 -38.72298729539402 3 0 0
11329 3647 6 -0.834 2.6891868115643733 4.607048286626787 -40.82038920026685 -1 -1 1
216 2982 7 0.417 4.0573437427810575 5.879811783256059 -35.75589154180388 -2 -7 1
214 2982 6 -0.834 3.7937677963400764 5.979782055808837 -36.67064528228855 -2 -7 1
514 2198 7 0.417 6.27968679505865 3.560891659686455 -31.48702666632894 2 -7 0
510 2198 7 0.417 6.777425442182051 4.10906711512018 -32.807508294879554 2 -7 0
513 2198 6 -0.834 5.9921646710297125 3.7737794807409766 -32.3748614286028 2 -7 0
1316 2107 7 0.417 7.569826441710006 3.586271436784787 -36.4564227884176 -1 1 0
776 2107 6 -0.834 7.331405619710586 3.530878178664382 -35.531043246604945 -1 1 0
1317 2107 7 0.417 6.650000466454436 2.8594144993620145 -35.498558762057215 -1 1 0
9490 1744 6 -0.834 1.9291321796271308 5.763192632799037 -31.803291064263018 -2 1 1
217 2982 7 0.417 4.436282215133815 5.4686743819623675 -37.162762653362066 -2 -7 1
12818 648 7 0.417 8.390029780252737 4.953940050472234 -38.997369320246406 8 0 1
8915 1726 6 -0.834 5.488483448686469 1.6050473807343102 -35.58717310907596 1 11 1
3429 2166 7 0.417 7.737671479814459 6.041794964564446 -41.007325673118885 8 3 0
12900 648 7 0.417 8.775375279993753 3.565138991261619 -38.53408499804906 8 0 1
1934 2025 6 -0.834 3.2463092145233943 3.144743830832936 -31.328969926775237 6 2 1
2831 1270 7 0.417 1.7743687787205935 7.657552228099118 -40.705905685616194 7 8 0
2916 3392 7 0.417 6.544177069208428 4.600615230357792 -38.26039927367989 3 0 0
1545 2470 7 0.417 5.643499879305116 2.936961037037585 -40.27255550829231 5 5 0
8998 1726 7 0.417 5.11753511521473 1.2070548304483815 -34.7996210090363 1 11 1
1546 2470 6 -0.834 4.729381511546632 2.896762210427449 -39.991472808966805 5 5 0
1549 2470 7 0.417 4.4496929599128086 2.0080254067565284 -40.21090855711251 5 5 0
11330 3647 7 0.417 2.730459751745368 4.143951311105064 -41.657094696783815 -1 -1 1
355 3371 7 0.417 4.576948427238347 6.24979188860802 -33.59645646179289 14 6 0
3870 3232 7 0.417 3.150298250550271 4.138101347696264 -35.09738169497679 -9 5 0
1932 2025 7 0.417 3.8912747791127953 3.305965226584853 -32.01763918425459 6 2 1
9865 2651 7 0.417 0.2792742281323427 4.453425469368153 -34.395607988747386 -6 4 1
3586 1229 7 0.417 9.332775179711676 8.305921943858275 -33.26785287280973 -2 -3 0
11517 3801 6 -0.834 1.168589288740856 1.349959780111944 -35.746795084556865 -2 14 1
12228 2909 6 -0.834 8.849028309673702 4.7439481406874915 -32.12546947852253 -6 5 1
439 3371 7 0.417 5.372870891833338 4.963101163067292 -33.64961967958843 14 6 0
441 3371 6 -0.834 4.687485214049382 5.44871435232016 -34.10859842460726 14 6 0
1936 2025 7 0.417 2.719343181422897 3.9433733461478835 -31.301964539655845 6 2 1
4579 1202 7 0.417 3.245175689149857 7.796823141071014 -37.436031289155 1 4 0
9868 2651 6 -0.834 0.5780625672729476 5.162916215893947 -34.96445176172067 -6 4 1
5178 3457 7 0.417 7.840893206786206 2.9028557405936164 -41.5810152725649 -3 -2 0
4612 3457 6 -0.834 7.14661985848963 2.3070153695099846 -41.29960491687377 -3 -2 0
2237 1178 7 0.417 5.227733160705125 7.95722641875522 -39.00556873887588 0 3 0
2321 1178 6 -0.834 5.736387120776171 7.783218127140974 -38.213589656437804 0 3 0
4583 1202 6 -0.834 2.592849549039902 8.377026880971737 -37.828546318901154 1 4 0
2829 1270 6 -0.834 1.2648498836137658 6.906168871264791 -40.402516053453354 7 8 0
4028 1202 7 0.417 1.8746862477441828 8.39348737240764 -37.195926214263665 1 4 0
12590 4054 7 0.417 5.260217762799431 7.9536750393764795 -41.36567986495302 4 -3 1
12229 2909 7 0.417 8.476805029509034 4.432540706661895 -31.30041575610617 -6 5 1
9899 1855 7 0.417 9.222788751964789 1.5449010166196748 -34.87873038907588 3 7 1
9900 1855 7 0.417 9.108822722726575 3.04935436405539 -35.00331076227758 3 7 1
10607 3850 7 0.417 0.8649589743715053 1.354700581783595 -39.0254193522316 -9 2 1
9487 1744 7 0.417 1.8630512744221095 5.868630858056868 -32.752373139123044 -2 1 1
2544 1460 7 0.417 1.0602483240563207 6.4427717494372265 -38.58669950243235 -2 -3 0
2318 1178 7 0.417 5.838138175432624 6.831571105751878 -38.197976766845905 0 3 0
12587 4054 7 0.417 4.02268847585916 8.809373193302504 -41.197753734602685 4 -3 1
10909 647 7 0.417 3.4371719047430505 1.770754216105979 -33.196152429769064 -6 7 1
12589 4054 6 -0.834 4.442146648034381 8.012927390817172 -40.8722374555385 4 -3 1
4394 2320 7 0.417 6.230311262249473 8.303422616837537 -36.63632098305277 -2 -2 0
4391 2320 7 0.417 6.524866518391885 7.7657932364272995 -35.252086456339164 -2 -2 0
1149 2259 7 0.417 5.989438341036314 7.845649721477098 -32.18127380385758 -7 -1 0
1148 2259 6 -0.834 5.062645076904205 7.821544596173356 -32.41940884839755 -7 -1 0
2830 1270 7 0.417 1.8313265222874873 6.151482101236801 -40.56308764870448 7 8 0
4347 3285 7 0.417 0.25546778855417646 6.870911697513403 -34.50540324307641 6 5 0
8838 666 7 0.417 8.915945823103623 7.317784040631956 -37.53429305466518 -2 8 1
8840 666 7 0.417 9.13560752677578 6.122917840428555 -36.630997636755524 -2 8 1
5307 1422 6 -0.834 8.43535165419638 5.746297378508086 -34.67257236833996 1 -3 0
4733 1422 7 0.417 8.612984446598022 5.350356480419961 -33.81939243212229 1 -3 0
5306 1422 7 0.417 7.963129547399437 5.069533686096211 -35.157577881270626 1 -3 0
8917 1726 7 0.417 4.9809828133418055 1.2305117014161124 -36.30717575376776 1 11 1
1146 2259 7 0.417 4.954237897848163 8.546063665892913 -33.03548903355281 -7 -1 0
4392 2320 6 -0.834 6.282513877026352 8.56638960850777 -35.71742816348116 -2 -2 0
5080 2522 7 0.417 7.554527889035911 8.945645611333466 -38.31694629566103 -4 -4 0
4610 3457 7 0.417 6.516087034097871 2.3160712346960883 -42.01973325179245 -3 -2 0
5079 2522 6 -0.834 8.394984068605554 9.065172126470964 -37.87469915276333 -4 -4 0
9617 2900 6 -0.834 8.321534213590708 8.848067231742256 -31.823945214282904 9 9 1
491 1936 7 0.417 8.040707472962195 8.301396078665025 -41.130400949245164 -6 4 1
9488 1744 7 0.417 1.0563231871022163 5.981124907484751 -31.47626679778319 -2 1 1
11518 3801 7 0.417 1.8135060969007377 2.0206706608230673 -35.522159184417056 -2 14 1
487 1936 6 -0.834 7.254437039071949 7.9426822759563525 -41.54190898277434 -6 4 1
2543 1460 6 -0.834 0.7223247603535642 6.443952729601021 -37.69112919653055 -2 -3 0
9618 2900 7 0.417 8.492449699266572 8.050410745949222 -31.323180806187533 9 9 1
2542 1460 7 0.417 1.5013046535323247 6.5249644053845595 -37.1407986073333 -2 -3 0
490 1936 7 0.417 7.47302747579474 7.890549133318712 -42.472361176771926 -6 4 1
4349 3285 7 0.417 0.27371992336156836 8.380018104973987 -34.62436951200566 6 5 0
3585 1229 6 -0.834 9.96959259516642 7.908530999292163 -33.861805682489006 -2 -3 0
42 206 7 0.417 14.21714089703025 2.706630478976297 -34.89536421189723 5 5 0
10067 727 6 -0.834 16.52432641068691 8.701009580666847 -37.02352609851492 -9 -2 1
9398 1693 6 -0.834 12.586354606588086 5.550580201212534 -42.322234038540195 -1 10 1
2861 3380 7 0.417 9.895628347424852 8.908294752552552 -41.341069365348446 3 1 0
41 206 6 -0.834 15.146166625168263 2.5595705179617827 -34.71782787578558 5 5 0
8762 1929 7 0.417 17.48447499195092 3.6791359192403426 -37.81268163824184 6 2 1
8038 698 7 0.417 14.703682151205701 5.714514523507559 -42.253909590479466 -5 7 1
3657 1229 7 0.417 9.487148988454472 7.204078248080648 -34.29450299854943 -2 -3 0
1450 270 7 0.417 12.963945560475775 7.466045570050032 -42.004025252437 -14 5 0
12226 2909 7 0.417 9.794465479079104 4.747791867283544 -31.97590935739745 -6 5 1
13518 4041 7 0.417 15.282135348050275 8.350244238881796 -42.107190934455 -1 3 1
8839 666 6 -0.834 9.586720050039554 6.696861525600124 -37.25012699179128 -2 8 1
4595 3482 7 0.417 11.852844200614724 4.821172651257039 -40.01332529918283 -3 -2 0
4596 3482 6 -0.834 11.814421510790218 3.8647941017302614 -40.0229889803032 -3 -2 0
10906 2765 7 0.417 12.341298101315992 2.7263345405623705 -32.99124616540372 0 0 1
341 3956 7 0.417 14.707872630349684 1.870439946971446 -31.600369164034962 3 2 1
8554 2709 7 0.417 17.044702373167283 4.898900780443117 -35.64772143033344 5 12 1
11447 40 7 0.417 11.22731060906136 6.6813579056067836 -38.149155385682334 -2 6 0
1078 1177 6 -0.834 14.685312564316304 3.232530889023025 -40.63167152383066 3 8 0
9122 2709 7 0.417 15.73189175340634 5.635652782541403 -35.48764938779064 5 12 1
3936 3422 6 -0.834 17.414656171656016 1.4551920552573396 -40.39718828180905 2 3 0
11132 3907 7 0.417 17.01510356045502 5.726972045979561 -32.49041863240267 1 6 1
11449 40 6 -0.834 12.131221698787652 6.4399451522671445 -38.35139006484479 -2 6 0
11448 40 7 0.417 12.370597805332308 5.812947435065001 -37.668888657935995 -2 6 0
2217 2371 7 0.417 14.514791730560912 5.500788365269162 -31.4872267640157 3 -8 0
10910 2765 7 0.417 11.287776924874535 2.796031038771319 -34.076209319337345 0 0 1
10908 2765 6 -0.834 12.235257961071158 2.780789369085684 -33.94099912308033 0 0 1
4057 315 7 0.417 11.040240443148104 1.735461419752042 -36.279972847204654 -7 2 0
2323 3264 7 0.417 12.725922434335137 5.262307282833971 -35.54892956261889 -4 -4 0
2322 3264 6 -0.834 12.74688767239909 4.456373277021452 -36.06493771493637 -4 -4 0
8766 1929 7 0.417 17.792944459046765 3.3257793544260843 -39.252091592304815 6 2 1
4592 3482 7 0.417 12.67257954169979 3.586889529204444 -39.7027254870546 -3 -2 0
2326 3264 7 0.417 12.517767674306478 3.7665988706382922 -35.4420809408907 -4 -4 0
1042 2128 7 0.417 10.446171370539412 1.4749651460127617 -38.443546528198695 -3 13 0
4058 315 6 -0.834 11.666099991748597 1.231708285854503 -36.80032615729031 -7 2 0
9898 1855 6 -0.834 9.737675897430027 2.3500420163349633 -34.8251601232775 3 7 1
3938 3422 7 0.417 16.89100944072781 1.1881269735865532 -39.64173572520106 2 3 0
8870 3791 6 -0.834 12.66483817562898 7.333573766957906 -35.161177179436145 -1 3 1
8869 3791 7 0.417 11.877935170686717 7.540382947477841 -34.656945161014804 -1 3 1
240 3986 7 0.417 13.878200533628064 4.10744668868478 -37.28505806060802 -7 -3 1
237 3986 6 -0.834 14.613696624800786 4.095061356591974 -37.89753587763413 -7 -3 1
1040 2128 6 -0.834 9.8854382004581 2.073788711527077 -38.93672325188341 -3 13 0
1039 2128 7 0.417 10.48561964952964 2.540369174551652 -39.51837729779925 -3 13 0
236 3986 7 0.417 15.30946857730494 4.573524186681753 -37.44674845487179 -7 -3 1
344 3956 7 0.417 15.253196518527112 2.750819285017721 -32.704660570515586 3 2 1
259 3956 6 -0.834 15.139158849371523 2.710843065679566 -31.755113888907704 3 2 1
13393 2777 6 -0.834 15.346608870878722 7.057307546613064 -34.81680928904455 1 -8 1
1077 1177 7 0.417 14.832333450258279 3.322618725031742 -39.69012476532715 3 8 0
13392 2777 7 0.417 14.419512225173877 7.2954685360348845 -34.81421700300371 1 -8 1
11130 3907 7 0.417 16.77106648144165 6.395893089063219 -33.826420854505756 1 6 1
1079 1177 7 0.417 14.13969513233717 2.4505569719282345 -40.715632089358536 3 8 0
11131 3907 6 -0.834 17.47000157766186 6.068441487604116 -33.26029190332958 1 6 1
11408 2985 7 0.417 15.78188793130902 7.083890216295908 -39.44921170196983 0 8 1
10862 2985 7 0.417 14.466879756486396 6.818860092343186 -38.7474876854404 0 8 1
1448 270 6 -0.834 13.393440169462705 8.304662347274366 -41.83524283490841 -14 5 0
13515 4041 7 0.417 16.132386678591843 7.1635524939263755 -42.508102378205784 -1 3 1
2068 3246 6 -0.834 15.315027695566487 8.408625063739915 -31.82740201444086 -4 -1 0
43 206 7 0.417 15.596838528877441 3.2388065051610653 -35.219592713728694 5 5 0
8871 3791 7 0.417 12.653164311077894 7.954434729735701 -35.889621973938866 -1 3 1
13391 2777 7 0.417 15.740175827928596 7.631961571035066 -35.473401899730554 1 -8 1
2761 61 7 0.417 17.014510135922638 1.219897665261926 -37.40376639705706 -5 -1 0
9120 2709 6 -0.834 16.1079663801655 4.824776954093847 -35.83011052215369 5 12 1
11407 2985 6 -0.834 15.016935111369198 7.527094770732301 -39.08226341148334 0 8 1
10066 727 7 0.417 16.226200448035694 8.26977309668144 -37.824396942237236 -9 -2 1
2216 2371 6 -0.834 13.884319447714269 6.178081868720367 -31.73219676868262 3 -8 0
2760 61 6 -0.834 17.66274819679898 1.7570104819736598 -36.94820916868714 -5 -1 0
8036 698 6 -0.834 15.605189852885374 5.52479766309486 -41.994051921612765 -5 7 1
8035 698 7 0.417 15.531940111367524 4.775434515970991 -41.40301664230818 -5 7 1
2070 3246 7 0.417 15.642025654234263 9.036986839426453 -31.183609274283207 -4 -1 0
2863 3380 6 -0.834 9.796046688660876 8.34219435780257 -40.575660736860314 3 1 0
9396 1693 7 0.417 12.164168668588616 4.715560313262559 -42.12041322374791 -1 10 1
12563 3203 6 -0.834 17.3865927952478 6.585305631345398 -39.673743862631355 4 -3 0
2069 2180 7 0.417 9.862664290324693 4.282954056842906 -41.650272773595276 9 6 0
8764 1929 6 -0.834 17.79785453046916 4.057003338576913 -38.63441677857125 6 2 1
2936 3380 7 0.417 10.508313572560695 8.601456545213706 -39.99111360433353 3 1 0
10688 882 7 0.417 12.252922795171331 5.490194107062231 -31.46542612664006 0 -7 1
3965 175 6 -0.834 18.44519074479328 1.4181849720824404 -32.51652238898246 2 11 0
2067 3246 7 0.417 15.332904150794311 8.88447715344729 -32.65775347100306 -4 -1 0
12530 862 7 0.417 10.902422553754905 9.026739596892956 -32.378247248006254 1 -4 1
1449 270 7 0.417 12.959670842401865 8.643088530489793 -41.05194802567964 -14 5 0
12642 3203 7 0.417 17.846761224873667 6.615084430002263 -40.51255118057697 4 -3 0
12559 3203 7 0.417 17.548891363689535 5.7021477568365455 -39.34219786660647 4 -3 0
10687 882 6 -0.834 11.455529418741728 5.108257460289839 -31.098651139967163 0 -7 1
10382 3935 7 0.417 14.4667665117873 9.039284010711611 -37.15301904090476 -4 6 1
2215 2371 7 0.417 14.41087480296622 6.9711190915247965 -31.83250689441416 3 -8 0
9452 2703 7 0.417 12.563105378287785 8.604273524711019 -38.97884417455798 -5 -2 1
2071 2180 6 -0.834 9.762625584160567 3.72841541388714 -42.42404033227175 9 6 0
4135 315 7 0.417 12.50162682694375 1.6806133862534929 -36.671436788803064 -7 2 0
4290 3182 7 0.417 16.118113949973996 4.1560940584271435 -31.166402838912948 7 19 0
3822 3514 7 0.417 0.5302744312662132 16.90405415234692 -32.86384795119407 6 -1 0
462 3977 7 0.417 1.0917241729361125 14.5084057680057 -34.0112407772001 1 15 1
1529 3077 7 0.417 1.5071221210945154 15.05690812265968 -37.38715520628294 5 -3 0
1956 2209 7 0.417 2.7708743460434846 10.613639416025839 -39.78740409008583 14 2 0
238 136 7 0.417 4.126398074222449 13.57070386121735 -42.159873876738395 -2 3 0
1404 2191 6 -0.834 6.644250840069675 12.446624794554452 -40.855385246111 -8 3 0
11723 954 6 -0.834 4.852373970569789 15.233748752552831 -42.12163950712993 -3 8 1
11110 2641 7 0.417 0.8508577273387244 10.009943211480966 -36.289071187443014 1 1 1
12634 3361 7 0.417 8.157656946458689 16.915464828456834 -31.67082741692976 -2 -7 0
1401 2191 7 0.417 6.2672481950462515 13.174432989299659 -40.36101988176607 -8 3 0
12385 278 7 0.417 8.167984994521213 15.682477555516014 -41.77910934383958 -12 5 0
866 1052 7 0.417 4.231539569496544 15.192312889102105 -35.0028395601973 -7 -1 0
3866 1279 6 -0.834 5.928626921417574 15.464286038831288 -37.45896797977269 -10 4 0
460 3977 6 -0.834 1.20722383721869 15.334752311213817 -33.542153312070496 1 15 1
11339 2048 7 0.417 6.945244509291651 15.033425785033277 -32.25816484036528 -1 2 1
3867 1279 7 0.417 5.611306701081687 14.767600758483962 -36.884361956602525 -10 4 0
459 3977 7 0.417 1.8900094849809645 15.15105021554112 -32.89694460326221 1 15 1
11662 3896 7 0.417 7.344529357889102 14.91629729560659 -38.1613470612965 5 8 1
10597 2847 7 0.417 3.4792110864733243 14.043857906780385 -31.500846672954996 -11 -4 1
10340 3747 6 -0.834 0.8448152699696786 12.600821085926627 -34.2485088420365 7 6 1
1526 3077 6 -0.834 2.0057415800701888 14.294329558441017 -37.68055729898804 5 -3 0
11111 2641 6 -0.834 1.0627413298270971 9.317026635819513 -35.6636063376289 1 1 1
12917 278 6 -0.834 7.316789763611907 15.939959893345794 -41.42498372708225 -12 5 0
11250 2847 6 -0.834 3.415507036405431 14.262851383864477 -32.43048327969738 -11 -4 1
11252 2847 7 0.417 4.313685513086612 14.466796339320476 -32.69109287996356 -11 -4 1
11658 3896 7 0.417 8.478343317181409 15.295853368908986 -39.089953315752496 5 8 1
5462 1474 7 0.417 5.342714644199625 10.401481133177786 -31.850175781582927 -3 0 0
5466 1474 7 0.417 5.7731551303001964 11.24415713677941 -33.03192246763597 -3 0 0
5464 1474 6 -0.834 5.167398489652307 10.547204029772898 -32.77983662424241 -3 0 0
1955 2209 7 0.417 1.948269773881035 9.546354178708572 -39.097388219790595 14 2 0
319 1136 7 0.417 1.3174206033293516 16.033913198424564 -40.951213667515944 -3 -2 0
11661 3896 6 -0.834 8.13382438877484 14.56644246895083 -38.574686871707414 5 8 1
327 1247 7 0.417 1.4472479722784215 12.579290453971534 -37.3525044755285 3 -10 0
330 1247 7 0.417 1.8251601539260909 11.184410730672235 -37.80348602195538 3 -10 0
11840 2048 7 0.417 6.42028088363996 13.846103037918022 -33.03699423030563 -1 2 1
11718 954 7 0.417 5.5123901959757635 15.708051334036165 -41.616020068640175 -3 8 1
4652 2411 7 0.417 4.132882066770906 11.644854708336988 -40.62282423826962 -2 -2 0
10337 3747 7 0.417 1.5485135851858824 12.265884372176652 -33.692754741444766 7 6 1
2332 3326 6 -0.834 4.672775509045068 10.750173546687982 -36.65025774171741 0 -10 0
4650 2411 6 -0.834 4.487075922457798 11.096916302422297 -39.92243432533039 -2 -2 0
239 136 6 -0.834 3.6952107929197777 12.73409710853583 -41.98552189820183 -2 3 0
2331 3326 7 0.417 4.6318552511641835 10.735252622128726 -37.606471057880626 0 -10 0
798 136 7 0.417 2.7599016699456103 12.935646790226311 -42.01396366579407 -2 3 0
10104 2799 6 -0.834 3.0340210414128674 10.729662221272052 -34.38871877920936 2 6 1
10107 2799 7 0.417 3.8559063686924353 10.848160766034242 -33.91259010611882 2 6 1
10674 2799 7 0.417 3.2849025141980674 10.760538699826625 -35.311944247315736 2 6 1
10341 3747 7 0.417 1.1072273822318879 12.362610468644556 -35.13768599289559 7 6 1
3865 1279 7 0.417 5.349622952346425 16.205232174057958 -37.28012503849602 -10 4 0
1954 2209 6 -0.834 1.8720054050116504 10.386883094799936 -39.54897039157871 14 2 0
2330 3326 7 0.417 4.905584666707591 9.854421543830613 -36.40600627526067 0 -10 0
1420 1213 6 -0.834 4.439347173002073 13.382681048132323 -36.24633667487041 -7 -7 0
12797 2634 6 -0.834 9.189555833720734 11.455312833287527 -39.104767283896045 -1 9 1
2447 3517 6 -0.834 7.845215651516752 11.270674066178538 -35.63825640077641 5 -1 0
2451 3517 7 0.417 7.151116147811902 10.711534273217229 -35.987286840415976 5 -1 0
1421 1213 7 0.417 4.58267877698678 12.497425906875103 -36.58101711942262 -7 -7 0
1418 1213 7 0.417 3.5190873847050383 13.565014223646097 -36.43636618885453 -7 -7 0
11202 1820 6 -0.834 7.14929255972564 12.270957302268869 -33.27831728769809 3 3 1
11841 2048 6 -0.834 6.142471180600618 14.665462679391485 -32.62747864556176 -1 2 1
328 1247 6 -0.834 1.4459097584265812 11.665379491741124 -37.06790811122827 3 -10 0
863 1052 6 -0.834 3.7737923041762174 16.024080748321886 -35.12474362665138 -7 -1 0
11201 1820 7 0.417 7.9557836128932955 12.28319925905 -32.762896727655345 3 3 1
321 1136 6 -0.834 1.9269533524636562 16.385445263610276 -40.30226688907377 -3 -2 0
865 1052 7 0.417 2.938558135684795 15.906945572768135 -34.672085594475135 -7 -1 0
12800 2634 7 0.417 9.132605650122791 11.410726030623366 -40.0592354556701 -1 9 1
4651 2411 7 0.417 5.435857931066024 11.137669007788082 -40.04237744515154 -2 -2 0
3001 3517 7 0.417 8.655541358937834 10.805823934830256 -35.846873327632174 5 -1 0
12799 2634 7 0.417 8.924801168553046 12.349764347788977 -38.890077613332004 -1 9 1
1525 3077 7 0.417 2.4005662495912934 14.569590490255061 -38.507953051424145 5 -3 0
166 3105 7 0.417 8.830601706351183 12.949029432410155 -35.972764690813285 -3 2 0
169 3105 6 -0.834 9.34235177323384 13.699909355685426 -36.27363634469335 -3 2 0
11108 2641 7 0.417 1.7846708885114402 9.673519281871561 -35.145951832781684 1 1 1
2726 1232 6 -0.834 9.358812517328865 13.00815912088282 -41.83777375494059 -1 0 0
12916 278 7 0.417 7.519918512210853 16.34209462432085 -40.58043329383064 -12 5 0
323 1136 7 0.417 2.5626180472872724 16.884187497046035 -40.81551372776413 -3 -2 0
168 3105 7 0.417 8.893387349884684 13.994285534452324 -37.06610901291963 -3 2 0
1698 3360 6 -0.834 8.205201890498023 15.224310784903663 -31.110063179883486 2 -2 0
10642 1820 7 0.417 7.419829750771172 11.953263511180834 -34.139780684842975 3 3 1
5584 2522 7 0.417 8.75189195146247 9.869694234952627 -38.25098883562714 -4 -4 0
10389 837 7 0.417 0.25606021461651096 12.724995249168314 -42.17389378970227 -7 -6 1
9048 1823 7 0.417 8.86155980339597 16.082422285092004 -34.069031294385525 -2 2 1
9049 1823 6 -0.834 9.028229040370668 16.090002463077337 -35.01158336541152 -2 2 1
4303 2398 7 0.417 0.37780968817960314 11.311538916742863 -40.346013806574895 -2 4 0
8971 1823 7 0.417 9.090382112833911 15.165508602003895 -35.251746984341054 -2 2 1
1405 2191 7 0.417 7.422083603782394 12.817171086020945 -41.27240623172447 -8 3 0
1697 3360 7 0.417 8.868373719613281 14.587039542720404 -31.37524562465055 2 -2 0
11507 942 7 0.417 5.470111624165469 16.251096077333575 -32.574772710793816 -7 4 1
9616 2900 7 0.417 7.958254343355855 9.460060173834824 -31.183845183312663 9 9 1
10974 2619 6 -0.834 0.4168685704640398 16.486860627885882 -36.45960357198988 -2 8 1
10975 2619 7 0.417 0.3725008156032388 16.621069773223294 -35.51289345379991 -2 8 1
3322 2457 7 0.417 18.413026706012637 10.616628040931467 -38.75938159137686 4 -1 0
11590 1825 6 -0.834 11.89458323157256 16.77460000650292 -36.696042158963365 -7 4 1
366 3044 6 -0.834 16.718704468837487 13.143812465153905 -32.32005900377964 1 4 1
365 3044 7 0.417 17.124307864291296 13.566344021880758 -31.56296569010039 1 4 1
1987 3137 7 0.417 11.294654611118688 11.181394867635644 -41.8634636429963 -4 -2 0
8955 774 7 0.417 18.059603810761743 14.941583743183278 -35.88882726704872 -4 3 1
2546 4087 7 0.417 18.11182078756155 13.249697779552982 -40.2373538495197 -5 7 1
2724 1232 7 0.417 9.657831400631894 12.29723379690893 -42.40470134991417 -1 0 0
140 2248 6 -0.834 12.434087048849017 16.37492816444923 -31.390050874179877 -4 8 0
1001 1246 7 0.417 18.39420393608005 9.249293679808769 -40.86994285165535 9 8 0
139 2248 7 0.417 11.881090658848372 16.89380707341864 -31.974169755181894 -4 8 0
1794 34 7 0.417 13.739126819864063 10.881730502416394 -31.993327432198363 6 -1 0
3275 105 6 -0.834 11.848441530929005 13.285993037468035 -40.188604741794094 -1 -7 0
4554 1423 6 -0.834 9.546025334233725 12.67138250244461 -31.695294117708436 -8 -3 0
2729 1232 7 0.417 9.535151701392694 13.804697917482923 -42.338437180372075 -1 0 0
2548 4087 6 -0.834 18.1443772337408 13.382634611321867 -39.28998419894114 -5 7 1
10069 727 7 0.417 17.021953710023435 9.459037708520716 -37.3301078084962 -9 -2 1
3321 2457 6 -0.834 18.14078246510731 10.99077287630381 -37.921445323557 4 -1 0
4552 1423 7 0.417 10.345865552531228 13.016671682269207 -32.091861613394585 -8 -3 0
11589 1825 7 0.417 11.813840955366237 15.838920608402864 -36.881012747408505 -7 4 1
1795 34 6 -0.834 13.83850343410579 11.42827197784121 -31.213805925874198 6 -1 0
141 2248 7 0.417 12.306557990778934 15.471268788401192 -31.6787838723482 -4 8 0
10876 1793 7 0.417 12.487904622655932 12.96683667297554 -31.281279983848084 -1 1 1
4079 1198 6 -0.834 11.766869183902022 14.307505887255807 -37.51380516144828 -4 5 0
3818 252 7 0.417 16.817037026936713 10.518421806065808 -39.89748777340632 -1 0 0
3277 105 7 0.417 11.087602964998757 13.562077869112802 -40.69962107541041 -1 -7 0
2618 1049 7 0.417 13.587211201648385 10.845686348856376 -42.05817504991169 -1 -3 0
9976 2722 7 0.417 15.86643736563415 11.96092693103541 -41.00901432828076 2 6 1
3817 252 7 0.417 15.691235917079785 9.537094927124182 -39.649564731062576 -1 0 0
3274 105 7 0.417 12.336373830141216 12.709729032491676 -40.77688799421921 -1 -7 0
4066 2277 7 0.417 9.803775378775526 9.26295001241667 -35.269326763955846 4 3 0
4067 2277 6 -0.834 10.261601527946262 9.899823898733745 -35.81798087709863 4 3 0
11890 2988 7 0.417 15.98549108386339 14.777308883500794 -35.97947272670774 -2 8 1
3701 316 7 0.417 15.890203366457907 15.919574937811968 -40.142166082523154 1 14 0
2666 3416 7 0.417 13.747199411779986 14.815517120193704 -37.54539220509908 0 -6 0
2665 3416 6 -0.834 14.622477008526111 14.601784565382511 -37.22221610457521 0 -6 0
10429 4028 7 0.417 14.704512246835893 10.429681836286417 -34.290884683635106 3 7 1
10427 4028 6 -0.834 15.544424250709008 10.506084257939882 -33.838174844237976 3 7 1
12532 862 7 0.417 11.83026545440997 10.129146178009186 -32.84268656021519 1 -4 1
11889 2988 6 -0.834 16.601846999854477 14.6883217335483 -35.25254452250335 -2 8 1
3700 316 6 -0.834 15.726016968292551 15.048505011108233 -39.78090080962321 1 14 0
2055 1049 6 -0.834 13.227162864257139 11.730121513485226 -42.12428016943797 -1 -3 0
8672 2737 6 -0.834 16.85106509922619 11.943657513006436 -35.66527802410088 -10 -3 1
11808 2988 7 0.417 16.050073721822095 14.673325393749822 -34.470521561776195 -2 8 1
8770 710 6 -0.834 12.076814853355787 11.323040679375085 -34.13070239863656 5 -2 1
12531 862 6 -0.834 11.687653215562433 9.51203588997453 -32.125000173220336 1 -4 1
4685 3535 7 0.417 15.251630768406628 14.320695235587827 -32.615277288105816 -4 11 0
3785 316 7 0.417 15.969036610019922 14.447062473333832 -40.484779228606556 1 14 0
5022 1394 7 0.417 12.653533271937993 14.777977526500425 -35.30381027110171 0 5 0
8671 2737 7 0.417 17.492824559178167 11.65475258477674 -36.314058014723386 -10 -3 1
10423 4028 7 0.417 16.042168560164047 11.135190876664252 -34.36039061381566 3 7 1
2114 3416 7 0.417 15.176769985250337 14.617196800533259 -38.00244768614628 0 -6 0
3814 252 6 -0.834 15.865539052017489 10.464868978824468 -39.807942068437136 -1 0 0
5018 1394 7 0.417 13.428073431137364 14.378657923612796 -34.065851286981854 0 5 0
1162 151 7 0.417 14.154242824081487 15.696849194782478 -40.823245374998145 -4 -6 0
10540 2722 7 0.417 15.949699213038269 12.652698623448506 -42.35304968785251 2 6 1
2549 4087 7 0.417 17.41413379586246 13.973283696075134 -39.10529215647039 -5 7 1
3516 1198 7 0.417 12.009512917307354 13.683523229536478 -38.19791453884465 -4 5 0
4005 1198 7 0.417 11.021239565275904 13.901267432148087 -37.07194227827894 -4 5 0
4681 3535 7 0.417 14.740897806920719 15.745394333454648 -32.650976483302856 -4 11 0
5020 1394 6 -0.834 12.647681477655235 14.158179088510067 -34.574391662227285 0 5 0
10874 1793 6 -0.834 12.003528468339125 13.555224126904365 -31.860430598577402 -1 1 1
8674 2737 7 0.417 17.09831916174209 12.847305932448297 -35.46902531522073 -10 -3 1
8769 710 7 0.417 12.405553715540757 12.135539066514715 -34.51542179935614 5 -2 1
8771 710 7 0.417 11.528999740498039 10.938064217301164 -34.81475590854786 5 -2 1
10381 3935 7 0.417 13.607747372036826 10.215873158061088 -36.74117068858263 -4 6 1
4064 2277 7 0.417 10.47597446399099 9.418160756511783 -36.61690675024107 4 3 0
1160 151 7 0.417 12.85042647068842 15.37329252423782 -40.125192180234784 -4 -6 0
368 3044 7 0.417 16.533046347471213 12.251937307413229 -32.02625560107909 1 4 1