LAMMPS (2 Aug 2023 - Update 3)
OMP_NUM_THREADS environment is not set. Defaulting to 1 thread. (src/comm.cpp:98)
  using 1 OpenMP thread(s) per MPI task
# A Simple input file to solvate two silicas
# Mahdi Tavakol (mahditavakol90@gmail.com)

# ------------------------ INITIALIZATION ----------------------------
units          real
boundary       p p p
atom_style     full

# ------------------- Neighbor generation and skin ---------------------
neigh_modify   delay 1
neighbor       2 bin

# -------------------------- VARIABLES --------------------------------
variable       temp       equal 300
variable       timestep   equal 1.0
variable       tDamp      equal 100.0*${timestep}
variable       tDamp      equal 100.0*1
variable       press      equal 0.0
variable       pDamp      equal 1000.0*${timestep}
variable       pDamp      equal 1000.0*1
variable       R          equal 10000 #10000000              # 10ns
variable       step       equal step
variable       dumpFreq   equal 100                # 100ps
variable       thermoFreq equal 100 #1000                  # 100ps
variable       Nfreq      equal ${dumpFreq}
variable       Nfreq      equal 100
variable       Nrepeat    equal 10
variable       Nevery     equal 1000

#######################################################################
variable       TIscale    equal  0.50

# --------------------- Forcefield ------------------------------------
bond_style     harmonic
angle_style    harmonic
dihedral_style harmonic
improper_style harmonic
pair_style     lj/charmm/coul/long 10 12
kspace_style   pppm 1.0e-6

# ----------------------- READ DATA FILE ------------------------------
read_data      EQ-Res-30000000-0.50.dat
Reading data file ...
  orthogonal box = (-0.28866128 0.70009451 -40.91706) to (37.368482 33.294443 71.350146)
  2 by 2 by 10 MPI processor grid
WARNING: Pair style lj/cut/coul/long in data file differs from currently defined pair style lj/charmm/coul/long (src/read_data.cpp:701)
  reading atoms ...
  13569 atoms
  reading velocities ...
  13569 velocities
  scanning bonds ...
  2 = max bonds/atom
  scanning angles ...
  6 = max angles/atom
  scanning dihedrals ...
  3 = max dihedrals/atom
  reading bonds ...
  8934 bonds
  reading angles ...
  6023 angles
  reading dihedrals ...
  408 dihedrals
Finding 1-2 1-3 1-4 neighbors ...
  special bond factors lj:    0        0        0       
  special bond factors coul:  0        0        0       
     4 = max # of 1-2 neighbors
     3 = max # of 1-3 neighbors
     5 = max # of 1-4 neighbors
     6 = max # of special neighbors
  special bonds CPU = 0.002 seconds
  read_data CPU = 0.094 seconds

#######################################################################
group          HAp      type <= 5
2804 atoms in group HAp


#######################################################################
group          TI       type 2
556 atoms in group TI
set            group    TI type/fraction 10 0.5 1234 #${RAND1}
Setting atom values ...
  274 settings made for type/fraction
group          TI2      type 10
274 atoms in group TI2
variable       TI2count equal count(TI2)
variable       q        atom "1.5 + v_TIscale*(1.8-1.5)"
set            type     10 charge v_q
Setting atom values ...
  274 settings made for charge
group          P        type 3
384 atoms in group P
variable       Pcount   equal count(P)
variable       Pq       atom "1-(v_TIscale*v_TI2count*(1.8-1.5)/v_Pcount)"
set            group    P charge v_Pq
Setting atom values ...
  384 settings made for charge

# ------------------ Thermodynamic Integration Compute ----------------

compute        TI all thermo_integ 0.5 0.0  single 10 pair lj/charmm/coul/long 0.1299984877 0.015 charge 1.5 1.8 3
#compute        TI all thermo_integ single 10 pair lj/charmm/coul/long 0.005
#compute        TI all thermo_integ single 10 charge 0.001 3

variable       dudepsilon equal c_TI[1]
variable       dudcharge  equal c_TI[2]
variable       dudlambda  equal c_TI[3]
variable       uA         equal c_TI[4]
variable       uB         equal c_TI[5]


compute        pe1 HAp pe/atom pair kspace
compute        pe2 all pe/atom pair kspace
compute        peA HAp reduce sum c_pe1
compute        peB all reduce sum c_pe2

variable       cHAp  equal count(HAp)
variable       cAll  equal count(all)

variable       peHAp equal c_peA/v_cHAp
variable       peAll equal c_peB/v_cAll

# -------------------------- SETTINGS ---------------------------------
#### Computes Required
compute        mytemp all   temp
thermo         ${thermoFreq}
thermo         100
thermo_style   custom step temp etotal epair ebond eangle v_dudepsilon v_dudcharge v_dudlambda press density pxx pyy pzz lx ly lz spcpu
restart        10000 restart1.bin restart2.bin

shell          mkdir dump
shell          cd dump

# ------------------- Simulation Parameters ---------------------------
timestep       1
timestep       ${timestep}
timestep       1
dump           2 all custom ${dumpFreq} dump.npt.lammpstrj mass id mol q type xs ys zs
dump           2 all custom 100 dump.npt.lammpstrj mass id mol q type xs ys zs
dump_modify    2 element O Ca P O H O H Na Cl Mg

# -----------------------     -----------------------------------
fix            3 all shake 0.0001 20 1000 b 4 a 3
Finding SHAKE clusters ...
       0 = # of size 2 clusters
       0 = # of size 3 clusters
       0 = # of size 4 clusters
    3583 = # of frozen angles
  find clusters CPU = 0.001 seconds
fix            1 all npt temp ${temp} ${temp} ${tDamp} aniso ${press} ${press} ${pDamp} drag 2.0
fix            1 all npt temp 300 ${temp} ${tDamp} aniso ${press} ${press} ${pDamp} drag 2.0
fix            1 all npt temp 300 300 ${tDamp} aniso ${press} ${press} ${pDamp} drag 2.0
fix            1 all npt temp 300 300 100 aniso ${press} ${press} ${pDamp} drag 2.0
fix            1 all npt temp 300 300 100 aniso 0 ${press} ${pDamp} drag 2.0
fix            1 all npt temp 300 300 100 aniso 0 0 ${pDamp} drag 2.0
fix            1 all npt temp 300 300 100 aniso 0 0 1000 drag 2.0
fix            4 all print ${thermoFreq} "${step} ${dudepsilon} ${dudcharge} ${dudlambda} ${uA} ${uB}" screen no title "step dudepsilon dudcarge dudlambda uA uB" file compute-TI-info.dat
fix            4 all print 100 "${step} ${dudepsilon} ${dudcharge} ${dudlambda} ${uA} ${uB}" screen no title "step dudepsilon dudcarge dudlambda uA uB" file compute-TI-info.dat
fix            6 all print ${thermoFreq} "${step} ${peHAp} ${peAll}" screen no title "" file compute.dat
fix            6 all print 100 "${step} ${peHAp} ${peAll}" screen no title "" file compute.dat
#fix            5 all recenter NULL NULL INIT units box


run            $R
run            10000
PPPM initialization ...
  using 12-bit tables for long-range coulomb (src/kspace.cpp:342)
  G vector (1/distance) = 0.2832127
  grid = 50 45 108
  stencil order = 5
  estimated absolute RMS force accuracy = 0.00039051915
  estimated relative force accuracy = 1.1760368e-06
  using double precision KISS FFT
  3d grid and FFT values/proc = 17280 6750
Generated 45 of 45 mixed pair_coeff terms from arithmetic mixing rule
Neighbor list info ...
  update: every = 1 steps, delay = 1 steps, check = yes
  max neighbors/atom: 2000, page size: 100000
  master list distance cutoff = 14
  ghost atom cutoff = 14
  binsize = 7, bins = 6 5 17
  1 neighbor lists, perpetual/occasional/extra = 1 0 0
  (1) pair lj/charmm/coul/long, perpetual
      attributes: half, newton on
      pair build: half/bin/newton
      stencil: half/bin/3d
      bin: standard
SHAKE stats (type/ave/delta/count) on step 0
Bond:   4   0.957202  1.06577e-05     7166
Angle:  3   104.52    0.00118575      3583
Per MPI rank memory allocation (min/avg/max) = 14.36 | 14.66 | 14.99 Mbytes
   Step          Temp          TotEng         E_pair         E_bond        E_angle      v_dudepsilon   v_dudcharge    v_dudlambda       Press         Density          Pxx            Pyy            Pzz             Lx             Ly             Lz           S/CPU     
         0   295.27817     -299865.83     -310805.66      1113.0719      1038.2719     -nan           -nan           -nan           -15503.044      1.4867815     -15095.458     -15070.49      -16343.184      37.657143      32.594348      112.26721      0            
       100   363.36686     -300833.48     -314010.08      958.6923       1402.881      -nan           -nan           -nan           -4319.4708      1.5291845     -4412.3931     -4163.7049     -4382.3144      37.317631      32.296245      111.1639       104.90799    
       200   360.40481     -301473.42     -315259.6       1542.5249      1516.7865     -nan           -nan           -nan            2228.3055      1.548201       998.19685      320.27797      5366.4417      37.153776      32.147822      110.79187      105.31761    
       300   344.24531     -302088.62     -315249.48      1320.9369      1594.0157     -nan           -nan           -nan            2321.4811      1.5451206     -376.85227      254.6868       7086.6086      37.071839      32.069751      111.52896      105.40157    
       400   335.42219     -302590.46     -315443.85      1340.0983      1529.9913     -nan           -nan           -nan           -293.48262      1.5323759     -1327.2563     -1607.5134      2054.3219      37.044382      32.0554        112.59027      105.96179    
       500   329.99019     -302971.68     -315578.58      1310.4306      1474.8419     -nan           -nan           -nan           -1440.9532      1.53144       -1572.5101     -1680.4739     -1069.8757      36.983534      31.992418      113.06659      106.89211    
       600   329.64475     -303321.74     -315778.53      1252.3891      1393.0545     -nan           -nan           -nan           -1164.893       1.5418869     -1088.5871     -1126.455      -1279.6367      36.863424      31.883187      113.05241      106.48461    
       700   322.95464     -303629.07     -316022.79      1392.0792      1389.4181     -nan           -nan           -nan            483.80994      1.5501359      442.3983       339.77362      669.25789      36.792175      31.807147      112.93793      106.45747    
       800   321.23384     -303901.7      -316232.98      1319.5492      1450.7225     -nan           -nan           -nan            869.86724      1.5515067      1037.0986     -64.413462      1636.9166      36.770536      31.770643      113.03427      105.33055    
       900   317.41213     -304151.75     -316434.41      1368.3487      1467.0571     -nan           -nan           -nan           -342.4006       1.5461513     -802.3802      -1128.4605      903.63891      36.793641      31.773631      113.3439       106.47756    
SHAKE stats (type/ave/delta/count) on step 1000
Bond:   4   0.957198  2.1633e-05      7166
Angle:  3   104.52    0.00247309      3583
      1000   315.67472     -304354.07     -316452.93      1367.7717      1335.5391     -nan           -nan           -nan           -143.26977      1.5455594     -335.39038      502.27074     -596.68967      36.771287      31.748887      113.54465      105.61573    
      1100   312.60683     -304534.88     -316550.7       1357.796       1353.7833     -nan           -nan           -nan           -163.60294      1.5461314     -548.07107      42.29588       14.966359      36.739854      31.743038      113.62069      106.41859    
      1200   307.78482     -304687.61     -316581         1349.6449      1383.031      -nan           -nan           -nan            187.55176      1.5454241      560.28624     -133.5556       135.92463      36.717745      31.753626      113.70321      107.78461    
      1300   309.99164     -304824.4      -316702.46      1346.9954      1304.6649     -nan           -nan           -nan            61.397865      1.5430514      275.18848     -106.6566       15.661721      36.736692      31.766256      113.77406      106.77755    
      1400   304.54671     -304943.05     -316712.12      1337.5296      1367.193      -nan           -nan           -nan           -211.83008      1.5415544     -915.10523     -45.012415      324.62741      36.744788      31.769809      113.84673      106.28484    
      1500   305.27303     -305028.83     -316817.08      1415.1728      1287.1196     -nan           -nan           -nan            365.76428      1.5418154      439.88508      353.43585      303.97193      36.724143      31.749731      113.96346      107.4386     
      1600   304.73136     -305101.82     -316825.42      1347.046       1306.7166     -nan           -nan           -nan           -202.54789      1.5415192     -1.356989      -402.67027     -203.61641      36.712415      31.733191      114.08121      107.40761    
      1700   301.89889     -305154.89     -316839.53      1373.1044      1325.9991     -nan           -nan           -nan            413.42397      1.5417273     -72.03965       387.00484      925.30673      36.688612      31.724328      114.1717       104.83479    
      1800   304.03607     -305210.38     -316941.23      1359.3404      1322.373      -nan           -nan           -nan           -231.16542      1.5408842      606.1241      -761.16634     -538.45402      36.676108      31.72902       114.25622      107.56318    
      1900   303.89532     -305263        -316947.03      1355.5421      1283.5373     -nan           -nan           -nan            223.36169      1.5411934      337.5853      -484.632        817.13178      36.684147      31.71451       114.26051      107.20945    
SHAKE stats (type/ave/delta/count) on step 2000
Bond:   4   0.957205  1.30901e-05     7166
Angle:  3   104.52    0.00145935      3583
      2000   301.82203     -305315.78     -317019.89      1382.4728      1338.3875     -nan           -nan           -nan            154.91339      1.5395862      162.62254     -86.472245      388.58987      36.698613      31.703775      114.37342      104.72458    
      2100   298.44512     -305326.5      -316868.61      1358.5254      1300.8386     -nan           -nan           -nan           -123.45606      1.5377182      411.29274     -321.02753     -460.63339      36.706179      31.696414      114.51535      106.44282    
      2200   300.62375     -305333.84     -316959.51      1370.7605      1307.3299     -nan           -nan           -nan           -29.631485      1.5377833     -786.70806      276.40543      421.40818      36.696617      31.689805      114.56422      106.27823    
      2300   303.14819     -305349.27     -317002.37      1350.9142      1279.4685     -nan           -nan           -nan            371.27272      1.5380724      702.26077      534.66354     -123.10614      36.68136       31.685132      114.60723      107.01124    
      2400   303.58369     -305373.9      -317048.3       1359.7659      1278.9589     -nan           -nan           -nan           -326.75985      1.536511       8.0445784     -796.04203     -192.28209      36.691156      31.691136      114.67133      106.63613    
      2500   301.42445     -305389.14     -317069.43      1415.4936      1293.3833     -nan           -nan           -nan           -157.00679      1.5351785     -1215.0629      696.94208      47.100426      36.702408      31.698962      114.70736      107.59419    
      2600   298.28472     -305397.68     -316955.74      1342.9531      1337.1418     -nan           -nan           -nan            524.26532      1.5361274      383.15363      561.7085       627.93382      36.680964      31.705947      114.67825      106.86728    
      2700   300.92487     -305412.5      -317001.04      1322.6195      1309.3798     -nan           -nan           -nan            150.13328      1.5357833      344.58338     -254.84059      360.65704      36.666164      31.719727      114.70039      105.95353    
      2800   300.42219     -305420.68     -317101.07      1419.4609      1319.3486     -nan           -nan           -nan            79.425314      1.533684       239.85743      306.0275      -307.60899      36.656785      31.733191      114.83803      106.10274    
      2900   298.1198      -305421.44     -316855.77      1330.1317      1231.141      -nan           -nan           -nan           -302.78992      1.5339043     -191.23329     -363.3519      -353.78458      36.642367      31.723175      114.90298      107.00278    
SHAKE stats (type/ave/delta/count) on step 3000
Bond:   4   0.957203  1.78731e-05     7166
Angle:  3   104.52    0.00201312      3583
      3000   300.10457     -305418.88     -317044.44      1399.5937      1293.8356     -nan           -nan           -nan            746.32041      1.5341179      809.49505      299.69337      1129.7728      36.635999      31.700717      114.98836      107.03544    
      3100   300.73595     -305421.06     -316998.31      1345.0266      1281.3085     -nan           -nan           -nan           -517.25727      1.5321868     -127.24408     -181.30226     -1243.2255      36.652607      31.693988      115.10555      107.46854    
      3200   300.66421     -305416.37     -317102.48      1419.2884      1318.0306     -nan           -nan           -nan            531.66466      1.5331957      167.88759      624.41304      802.69337      36.645977      31.680029      115.10131      106.22262    
      3300   298.00697     -305414.52     -316968.75      1367.2285      1317.3035     -nan           -nan           -nan            142.52714      1.5317969     -26.014205     -466.52479      920.12041      36.650032      31.696313      115.1345       106.85741    
      3400   298.14712     -305396.74     -316949.87      1362.9837      1316.2812     -nan           -nan           -nan            144.57117      1.5293743      171.27344     -359.47204      621.9121       36.654855      31.716583      115.22801      108.01807    
      3500   299.12417     -305382.89     -316942.9       1387.1866      1269.8805     -nan           -nan           -nan           -360.49645      1.5288136     -415.64068     -564.12862     -101.72005      36.654336      31.700633      115.3299       107.29332    
      3600   298.26796     -305353.05     -316841.9       1340.1124      1271.2733     -nan           -nan           -nan            355.25518      1.5312254      640.14115      492.56075     -66.936365      36.633827      31.656757      115.3724       105.87451    
      3700   300.11948     -305358.59     -317052.18      1396.3437      1364.6734     -nan           -nan           -nan            149.37563      1.5316827      2.5749093      174.30119      271.2508       36.64414       31.647382      115.33965      106.1228     
      3800   298.96726     -305384.02     -316943.7       1315.4918      1345.908      -nan           -nan           -nan           -11.846943      1.529569       76.540082      497.91181     -609.99272      36.674522      31.669783      115.32172      105.05451    
      3900   301.87485     -305384.44     -317040.18      1396.0287      1274.8923     -nan           -nan           -nan           -294.08471      1.5279463     -1263.3607     -29.874429      410.98104      36.685152      31.691804      115.33055      105.63126    
SHAKE stats (type/ave/delta/count) on step 4000
Bond:   4   0.957202  2.58326e-05     7166
Angle:  3   104.52    0.00293563      3583
      4000   299.23643     -305383.12     -316855.52      1315.0761      1251.0304     -nan           -nan           -nan           -216.68224      1.5270978     -52.763022     -539.37314     -57.910552      36.653292      31.702378      115.45642      105.61936    
      4100   297.92549     -305361.66     -316927.39      1402.4778      1295.9843     -nan           -nan           -nan           -158.13133      1.5266668      183.57627     -118.81289     -539.15738      36.624652      31.699009      115.5916       107.80501    
      4200   301.81294     -305336.34     -316956.56      1342.8869      1294.3493     -nan           -nan           -nan           -435.87208      1.5292743     -945.71523     -120.05755     -241.84347      36.601326      31.677293      115.54722      107.68589    
      4300   300.48395     -305332.06     -317000         1421.0337      1303.4883     -nan           -nan           -nan            516.7143       1.5316869      98.681318      908.28235      543.17924      36.585263      31.662644      115.46926      106.07983    
      4400   300.67707     -305318.23     -316909.53      1370.3316      1271.7993     -nan           -nan           -nan           -197.93499      1.5320123     -94.172704     -239.97583     -259.65642      36.584779      31.665589      115.43553      106.05488    
      4500   299.51525     -305308.43     -316960.16      1452.8696      1284.2713     -nan           -nan           -nan            647.00536      1.5317293      758.44971      846.68294      335.88343      36.581657      31.667848      115.45847      105.58635    
      4600   296.95425     -305299.03     -316748.45      1343.4405      1267.6155     -nan           -nan           -nan           -281.62599      1.5298657     -120.21458     -584.62909     -140.03429      36.610743      31.678688      115.46775      106.64554    
      4700   297.47363     -305285.52     -316816.67      1363.7721      1313.5543     -nan           -nan           -nan            341.79888      1.5296827      110.62322      535.95248      378.82095      36.644142      31.685643      115.35099      106.26969    
      4800   301.31755     -305293.56     -316887.55      1336.0095      1289.7507     -nan           -nan           -nan           -82.333381      1.5299127     -458.97382     -85.067576      297.04125      36.643832      31.687645      115.32734      105.47607    
      4900   298.71209     -305308.17     -316828.12      1368.475       1260.7977     -nan           -nan           -nan           -264.80794      1.529969      -277.33536     -268.61892     -248.46953      36.625996      31.68351       115.39431      105.99517    
SHAKE stats (type/ave/delta/count) on step 5000
Bond:   4   0.957198  8.63027e-06     7166
Angle:  3   104.52    0.000965841     3583
      5000   300.29407     -305295.34     -316925.86      1364.4967      1328.2507     -nan           -nan           -nan            191.20044      1.5312041     -114.03898      576.20989      111.43041      36.614647      31.663334      115.41046      104.86205    
      5100   302.41579     -305305.37     -316855.63      1308.1314      1241.208      -nan           -nan           -nan            110.62025      1.5303871      451.00234     -180.50397      61.362375      36.607939      31.658274      115.51169      105.59177    
      5200   298.72929     -305302.59     -316854.64      1396.6128      1264.2414     -nan           -nan           -nan            347.81305      1.528967       276.67251      640.14377      126.62286      36.615592      31.662682      115.57872      106.02127    
      5300   301.06275     -305281.64     -316831.13      1343.0867      1245.7549     -nan           -nan           -nan            72.979062      1.5266915     -131.33438     -372.24084      722.51241      36.627736      31.687093      115.62346      105.63997    
      5400   297.94663     -305255.42     -316760.48      1381.5023      1255.6471     -nan           -nan           -nan           -202.31613      1.5240229      18.285099     -622.14534     -3.0881349      36.636843      31.714989      115.69528      105.20976    
      5500   301.96136     -305249.42     -316885.96      1378.2482      1270.8981     -nan           -nan           -nan            319.29562      1.5234791      74.373394      229.79182      653.72164      36.646947      31.710879      115.71967      105.58318    
      5600   300.22647     -305266.16     -316817.66      1353.433       1262.3078     -nan           -nan           -nan           -302.69171      1.5225299     -420.42274     -50.292093     -437.36031      36.63397       31.707221      115.84619      102.92157    
      5700   301.39224     -305293.03     -316923.17      1392.7368      1266.9476     -nan           -nan           -nan            574.25101      1.523353       416.38375      313.94383      992.42546      36.591407      31.704238      115.92918      106.5217     
      5800   300.08404     -305300.44     -316869.14      1320.8429      1316.3449     -nan           -nan           -nan           -529.69302      1.5226007     -576.58967     -563.07461     -449.41477      36.572975      31.711546      116.01817      107.34984    
      5900   300.31841     -305303.76     -316873.57      1346.5866      1284.7312     -nan           -nan           -nan           -288.93662      1.5231405     -395.35132     -447.30333     -24.155221      36.558314      31.713459      116.01657      107.04144    
SHAKE stats (type/ave/delta/count) on step 6000
Bond:   4   0.957202  1.12988e-05     7166
Angle:  3   104.52    0.0012693       3583
      6000   299.4028      -305323.11     -316861.97      1378.9043      1248.7178     -nan           -nan           -nan            77.448562      1.5231731      901.50509     -190.38369     -478.77571      36.560906      31.702954      116.0443       107.09437    
      6100   299.48675     -305335.13     -316851.76      1357.7234      1245.1623     -nan           -nan           -nan            103.97276      1.5223277      159.57549      22.781527      129.56125      36.586537      31.695277      116.0555       108.21993    
      6200   297.77319     -305325.14     -316844.34      1381.7882      1274.6724     -nan           -nan           -nan           -215.59378      1.5207104     -562.00592      209.76378     -294.5392       36.614583      31.706595      116.0485       108.55114    
      6300   304.45111     -305323.88     -316971.38      1286.0081      1299.9928     -nan           -nan           -nan           -349.02273      1.5212811      158.7064      -741.00962     -464.76496      36.615901      31.714195      115.97299      108.10174    
      6400   297.43156     -305322.78     -316766.57      1355.8689      1235.3471     -nan           -nan           -nan            273.8624       1.5229847      322.00704      293.30394      206.27623      36.6143        31.702186      115.89221      108.46477    
      6500   295.70485     -305315.49     -316734.49      1357.0861      1260.7273     -nan           -nan           -nan            229.98871      1.5234343      102.76869      384.48811      202.70933      36.612134      31.712583      115.82688      107.38405    
      6600   297.58389     -305296.25     -316681.4       1302.4962      1225.5411     -nan           -nan           -nan           -7.4458221      1.5243497      23.498924     -407.3628       361.52641      36.606353      31.713513      115.77221      106.82532    
      6700   303.00257     -305276.96     -316880.03      1351.6016      1233.0877     -nan           -nan           -nan           -195.09098      1.5254772      124.36108     -898.13664      188.50261      36.595222      31.705252      115.75198      105.3835     
      6800   301.68019     -305279.59     -316845.96      1338.0967      1249.244      -nan           -nan           -nan            426.64555      1.5258811     -2.2387397      718.57938      563.596        36.605112      31.688401      115.7516       103.58243    
      6900   301.24298     -305280.74     -316854.21      1371.4031      1236.0522     -nan           -nan           -nan           -60.259832      1.5229898     -244.37744      336.45114     -272.85319      36.632062      31.684384      115.90072      105.79849    
SHAKE stats (type/ave/delta/count) on step 7000
Bond:   4   0.957201  6.65182e-06     7166
Angle:  3   104.52    0.000731306     3583
      7000   295.55962     -305259.93     -316759.57      1420.7737      1282.0062     -nan           -nan           -nan           -260.68485      1.5217846     -512.61844     -335.91704      66.48094       36.627651      31.685252      116.0033       105.00198    
      7100   300.21942     -305209.72     -316733.34      1349.7791      1238.293      -nan           -nan           -nan            32.156208      1.5221739     -46.969103      269.209       -125.77127      36.622539      31.676485      116.02191      105.69353    
      7200   299.00621     -305177.5      -316680.28      1378.7367      1224.6021     -nan           -nan           -nan           -57.878771      1.5226778      59.09796       615.17403     -847.9083       36.617371      31.68351       115.97417      105.51306    
      7300   301.7305      -305161.65     -316867.15      1376.0395      1348.9425     -nan           -nan           -nan           -46.048877      1.5230155     -74.432825     -510.36908      446.65527      36.617752      31.705957      115.86516      107.86189    
      7400   299.64155     -305156.31     -316540.52      1297.6616      1168.2013     -nan           -nan           -nan           -48.244875      1.5221113      129.57694     -748.58746      474.27589      36.619985      31.725782      115.85448      108.24883    
      7500   296.79262     -305149.4      -316615.97      1386.2361      1246.7804     -nan           -nan           -nan           -397.41695      1.5212371     -267.40142      291.98125     -1216.8307      36.622941      31.726167      115.9103       107.39858    
      7600   299.34939     -305146.54     -316567.88      1299.6486      1212.0454     -nan           -nan           -nan           -19.55765       1.5231131     -136.70028      175.57719     -97.54986       36.619655      31.70565       115.85284      105.53747    
      7700   303.6439      -305158.39     -316863.17      1405.4579      1261.8487     -nan           -nan           -nan            412.18598      1.5244007      880.65895     -206.89484      562.79383      36.626068      31.690413      115.79036      106.8777     
      7800   302.22557     -305183.89     -316705.05      1291.1336      1234.7689     -nan           -nan           -nan           -909.12656      1.5223338     -1087.2238     -637.73751     -1002.4183      36.66506       31.698768      115.79373      108.09687    
      7900   300.37542     -305175.84     -316692.66      1306.253       1270.3842     -nan           -nan           -nan            166.02766      1.5231393      42.484135      26.332682      429.26615      36.663375      31.69129       115.76513      106.08022    
SHAKE stats (type/ave/delta/count) on step 8000
Bond:   4   0.9572    1.63505e-05     7166
Angle:  3   104.52    0.00182688      3583
      8000   298.75952     -305171.87     -316726.34      1359.7442      1302.6307     -nan           -nan           -nan           -260.92838      1.5226986     -149.32667     -787.44608      153.9876       36.641365      31.697859      115.84418      105.56064    
      8100   303.6978      -305160.71     -316789.82      1330.7753      1259.2653     -nan           -nan           -nan           -372.94542      1.5242602     -63.239076     -347.43632     -708.16085      36.615043      31.688021      115.84465      107.25369    
      8200   298.78651     -305175.54     -316612.97      1351.5941      1192.9377     -nan           -nan           -nan            381.26148      1.5265456      715.38628      412.61043      15.787718      36.608057      31.664217      115.78027      106.58127    
      8300   302.01245     -305187.24     -316809.01      1327.8645      1304.9865     -nan           -nan           -nan           -44.014541      1.5267642     -225.83106      37.849411      55.938032      36.618537      31.655531      115.76231      108.11885    
      8400   297.23374     -305178.87     -316656.27      1350.1948      1280.5268     -nan           -nan           -nan            334.46379      1.5260482     -201.19179      1429.2417     -224.65856      36.630545      31.659756      115.76321      107.96857    
      8500   300.93652     -305177.16     -316695.47      1300.0013      1261.4139     -nan           -nan           -nan           -297.00111      1.5243073     -328.93208     -671.84469      109.77345      36.643032      31.682851      115.77148      107.58248    
      8600   299.37816     -305171.09     -316752.06      1389.4604      1281.0038     -nan           -nan           -nan           -165.06275      1.5238892     -42.70176      -249.13563     -203.35086      36.634199      31.683815      115.82764      105.72158    
      8700   302.34451     -305168.3      -316645.62      1303.1469      1175.3798     -nan           -nan           -nan           -155.69035      1.5228244      113.24064     -308.46713     -271.84456      36.628         31.68946       115.90759      106.67989    
      8800   299.44821     -305171.49     -316634.94      1314.8538      1236.0058     -nan           -nan           -nan            605.10821      1.5232048      16.531175      737.99338      1060.8001      36.616899      31.681241      115.94385      106.76649    
      8900   300.65936     -305165.77     -316767.43      1403.9112      1249.1073     -nan           -nan           -nan           -63.511411      1.5206177     -494.59989     -60.705318      364.77097      36.626021      31.7056        116.02298      106.17444    
SHAKE stats (type/ave/delta/count) on step 9000
Bond:   4   0.9572    7.39146e-06     7166
Angle:  3   104.52    0.000832767     3583
      9000   300.43217     -305154.48     -316607.18      1238.2795      1272.5358     -nan           -nan           -nan           -810.75243      1.5197687     -379.69915     -1140.0552     -912.50293      36.619458      31.709407      116.09465      106.54229    
      9100   298.75821     -305153.47     -316727.38      1395.895       1285.9575     -nan           -nan           -nan            910.00244      1.5203112      1240.0459      1037.576       452.38543      36.611201      31.689069      116.1539       107.52631    
      9200   299.41795     -305141.91     -316572.09      1291.2645      1227.2253     -nan           -nan           -nan           -259.6013       1.5184863     -483.35079      234.04183     -529.49495      36.633471      31.696305      116.19626      107.25265    
      9300   299.82927     -305127.25     -316670.13      1406.4176      1212.5353     -nan           -nan           -nan           -320.00437      1.5179121     -280.37508     -521.18814     -158.4499       36.638889      31.700358      116.20817      108.88995    
      9400   300.15728     -305117.01     -316653.28      1322.834       1279.7295     -nan           -nan           -nan           -293.38899      1.5187998     -304.68325     -244.49032     -330.9934       36.616862      31.696321      116.22491      109.01482    
      9500   298.27812     -305114.62     -316522.36      1348.4054      1181.5694     -nan           -nan           -nan            127.17827      1.5201412      40.15778       711.22942     -369.85238      36.596611      31.694131      116.19464      108.03227    
      9600   300.13565     -305107.91     -316576.5       1312.6305      1222.9073     -nan           -nan           -nan            266.04774      1.5216194      1224.9508     -778.03492      351.22734      36.57331       31.699132      116.13739      108.93869    
      9700   301.86595     -305119.7      -316635.25      1352.1145      1178.8785     -nan           -nan           -nan           -223.04853      1.5213076     -488.17083     -178.57204     -2.4027258      36.591649      31.704708      116.08256      108.73003    
      9800   295.45172     -305118.39     -316506.14      1350.045       1244.0544     -nan           -nan           -nan            142.81609      1.5197303     -101.23512      505.81822      23.865187      36.639041      31.710518      116.03147      106.5316     
      9900   300.09906     -305118.41     -316661.82      1308.2005      1303.2401     -nan           -nan           -nan           -140.49414      1.5196281     -294.2528      -939.19572      811.96609      36.658803      31.708626      115.98364      107.8227     
SHAKE stats (type/ave/delta/count) on step 10000
Bond:   4   0.957199  2.1045e-05      7166
Angle:  3   104.52    0.00240706      3583
     10000   304.26864     -305134.01     -316747.68      1367.2795      1190.3246     -nan           -nan           -nan            330.89055      1.5202343      217.05605      184.6397       590.97589      36.650361      31.679372      116.07118      106.16673    
Loop time of 93.8209 on 40 procs for 10000 steps with 13569 atoms

Performance: 9.209 ns/day, 2.606 hours/ns, 106.586 timesteps/s, 1.446 Matom-step/s
96.6% CPU use with 40 MPI tasks x 1 OpenMP threads

MPI task timing breakdown:
Section |  min time  |  avg time  |  max time  |%varavg| %total
---------------------------------------------------------------
Pair    | 36.261     | 44.58      | 50.478     |  58.7 | 47.52
Bond    | 0.012641   | 0.066895   | 0.20876    |  27.7 |  0.07
Kspace  | 25.398     | 31.284     | 39.499     |  69.3 | 33.34
Neigh   | 3.7534     | 3.7581     | 3.7649     |   0.2 |  4.01
Comm    | 2.6787     | 2.7446     | 2.8183     |   2.2 |  2.93
Output  | 0.13052    | 0.17291    | 0.20997    |   5.5 |  0.18
Modify  | 7.4994     | 9.3871     | 10.395     |  35.6 | 10.01
Other   |            | 1.828      |            |       |  1.95

Nlocal:        339.225 ave         365 max         297 min
Histogram: 3 2 2 1 0 6 8 7 8 3
Nghost:        7760.15 ave        7980 max        7468 min
Histogram: 7 1 1 5 1 1 4 10 3 7
Neighs:         196403 ave      223405 max      162058 min
Histogram: 5 2 1 0 3 11 5 6 4 3

Total # of neighbors = 7856107
Ave neighs/atom = 578.97465
Ave special neighs/atom = 2.2647211
Neighbor list builds = 540
Dangerous builds = 0
# --------- Writting the output coordinates and velocities ------------
write_data     TI.dat pair ij
System init for write_data ...
PPPM initialization ...
  using 12-bit tables for long-range coulomb (src/kspace.cpp:342)
  G vector (1/distance) = 0.28440538
  grid = 48 45 120
  stencil order = 5
  estimated absolute RMS force accuracy = 0.00035450125
  estimated relative force accuracy = 1.06757e-06
  using double precision KISS FFT
  3d grid and FFT values/proc = 17670 6624
Generated 45 of 45 mixed pair_coeff terms from arithmetic mixing rule
Total wall time: 0:01:34
