LAMMPS (2 Aug 2023 - Update 3)
OMP_NUM_THREADS environment is not set. Defaulting to 1 thread. (src/comm.cpp:98)
  using 1 OpenMP thread(s) per MPI task
# A Simple input file to solvate two silicas
# Mahdi Tavakol (mahditavakol90@gmail.com)

# ------------------------ INITIALIZATION ----------------------------
units          real
boundary       p p p
atom_style     full

# ------------------- Neighbor generation and skin ---------------------
neigh_modify   delay 1
neighbor       2 bin

# -------------------------- VARIABLES --------------------------------
variable       temp       equal 300
variable       timestep   equal 1.0
variable       tDamp      equal 100.0*${timestep}
variable       tDamp      equal 100.0*1
variable       press      equal 0.0
variable       pDamp      equal 1000.0*${timestep}
variable       pDamp      equal 1000.0*1
variable       R          equal 10000 #10000000              # 10ns
variable       step       equal step
variable       dumpFreq   equal 100                # 100ps
variable       thermoFreq equal 100 #1000                  # 100ps
variable       Nfreq      equal ${dumpFreq}
variable       Nfreq      equal 100
variable       Nrepeat    equal 10
variable       Nevery     equal 1000

#######################################################################
variable       TIscale    equal  0.50

# --------------------- Forcefield ------------------------------------
bond_style     harmonic
angle_style    harmonic
dihedral_style harmonic
improper_style harmonic
pair_style     lj/charmm/coul/long 10 12
kspace_style   pppm 1.0e-6

# ----------------------- READ DATA FILE ------------------------------
read_data      EQ-Res-30000000-0.50.dat
Reading data file ...
  orthogonal box = (-0.28866128 0.70009451 -40.91706) to (37.368482 33.294443 71.350146)
  2 by 2 by 10 MPI processor grid
WARNING: Pair style lj/cut/coul/long in data file differs from currently defined pair style lj/charmm/coul/long (src/read_data.cpp:701)
  reading atoms ...
  13569 atoms
  reading velocities ...
  13569 velocities
  scanning bonds ...
  2 = max bonds/atom
  scanning angles ...
  6 = max angles/atom
  scanning dihedrals ...
  3 = max dihedrals/atom
  reading bonds ...
  8934 bonds
  reading angles ...
  6023 angles
  reading dihedrals ...
  408 dihedrals
Finding 1-2 1-3 1-4 neighbors ...
  special bond factors lj:    0        0        0       
  special bond factors coul:  0        0        0       
     4 = max # of 1-2 neighbors
     3 = max # of 1-3 neighbors
     5 = max # of 1-4 neighbors
     6 = max # of special neighbors
  special bonds CPU = 0.003 seconds
  read_data CPU = 0.097 seconds

#######################################################################
group          HAp      type <= 5
2804 atoms in group HAp


#######################################################################
group          TI       type 2
556 atoms in group TI
set            group    TI type/fraction 10 0.5 1234 #${RAND1}
Setting atom values ...
  274 settings made for type/fraction
group          TI2      type 10
274 atoms in group TI2
variable       TI2count equal count(TI2)
variable       q        atom "1.5 + v_TIscale*(1.8-1.5)"
set            type     10 charge v_q
Setting atom values ...
  274 settings made for charge
group          P        type 3
384 atoms in group P
variable       Pcount   equal count(P)
variable       Pq       atom "1-(v_TIscale*v_TI2count*(1.8-1.5)/v_Pcount)"
set            group    P charge v_Pq
Setting atom values ...
  384 settings made for charge

# ------------------ Thermodynamic Integration Compute ----------------

compute        TI HAp thermo_integ 0.5 0.02  single 10 pair lj/charmm/coul/long 0.1299984877 0.015 charge 1.5 1.8 3
#compute        TI all thermo_integ single 10 pair lj/charmm/coul/long 0.005
#compute        TI all thermo_integ single 10 charge 0.001 3

variable       dudepsilon equal c_TI[1]
variable       dudcharge  equal c_TI[2]
variable       dudlambda  equal c_TI[3]
variable       uA         equal c_TI[4]
variable       uB         equal c_TI[5]


compute        pe1 HAp pe/atom pair kspace
compute        pe2 all pe/atom pair kspace
compute        peA HAp reduce sum c_pe1
compute        peB all reduce sum c_pe2

variable       cHAp  equal count(HAp)

variable       peHAp equal c_peA/v_cHAp
variable       peAll equal c_peB

# -------------------------- SETTINGS ---------------------------------
#### Computes Required
compute        mytemp all   temp
thermo         ${thermoFreq}
thermo         100
thermo_style   custom step temp etotal epair ebond eangle v_dudepsilon v_dudcharge v_dudlambda press density pxx pyy pzz lx ly lz spcpu
restart        10000 restart1.bin restart2.bin

shell          mkdir dump
shell          cd dump

# ------------------- Simulation Parameters ---------------------------
timestep       1
timestep       ${timestep}
timestep       1
dump           2 all custom ${dumpFreq} dump.npt.lammpstrj mass id mol q type xs ys zs
dump           2 all custom 100 dump.npt.lammpstrj mass id mol q type xs ys zs
dump_modify    2 element O Ca P O H O H Na Cl Mg

# -----------------------     -----------------------------------
fix            3 all shake 0.0001 20 1000 b 4 a 3
Finding SHAKE clusters ...
       0 = # of size 2 clusters
       0 = # of size 3 clusters
       0 = # of size 4 clusters
    3583 = # of frozen angles
  find clusters CPU = 0.001 seconds
fix            1 all npt temp ${temp} ${temp} ${tDamp} aniso ${press} ${press} ${pDamp} drag 2.0
fix            1 all npt temp 300 ${temp} ${tDamp} aniso ${press} ${press} ${pDamp} drag 2.0
fix            1 all npt temp 300 300 ${tDamp} aniso ${press} ${press} ${pDamp} drag 2.0
fix            1 all npt temp 300 300 100 aniso ${press} ${press} ${pDamp} drag 2.0
fix            1 all npt temp 300 300 100 aniso 0 ${press} ${pDamp} drag 2.0
fix            1 all npt temp 300 300 100 aniso 0 0 ${pDamp} drag 2.0
fix            1 all npt temp 300 300 100 aniso 0 0 1000 drag 2.0
fix            4 all print ${thermoFreq} "${step} ${dudepsilon} ${dudcharge} ${dudlambda} ${uA} ${uB}" screen no title "step dudepsilon dudcarge dudlambda uA uB" file compute-TI-info.dat
fix            4 all print 100 "${step} ${dudepsilon} ${dudcharge} ${dudlambda} ${uA} ${uB}" screen no title "step dudepsilon dudcarge dudlambda uA uB" file compute-TI-info.dat
fix            6 all print ${thermoFreq} "${step} ${peHAp} ${peAll}" screen no title "" file compute.dat
fix            6 all print 100 "${step} ${peHAp} ${peAll}" screen no title "" file compute.dat
#fix            5 all recenter NULL NULL INIT units box


run            $R
run            10000
PPPM initialization ...
  using 12-bit tables for long-range coulomb (src/kspace.cpp:342)
  G vector (1/distance) = 0.2832127
  grid = 50 45 108
  stencil order = 5
  estimated absolute RMS force accuracy = 0.00039051915
  estimated relative force accuracy = 1.1760368e-06
  using double precision KISS FFT
  3d grid and FFT values/proc = 17280 6750
Generated 45 of 45 mixed pair_coeff terms from arithmetic mixing rule
Neighbor list info ...
  update: every = 1 steps, delay = 1 steps, check = yes
  max neighbors/atom: 2000, page size: 100000
  master list distance cutoff = 14
  ghost atom cutoff = 14
  binsize = 7, bins = 6 5 17
  1 neighbor lists, perpetual/occasional/extra = 1 0 0
  (1) pair lj/charmm/coul/long, perpetual
      attributes: half, newton on
      pair build: half/bin/newton
      stencil: half/bin/3d
      bin: standard
SHAKE stats (type/ave/delta/count) on step 0
Bond:   4   0.957202  1.06577e-05     7166
Angle:  3   104.52    0.00118575      3583
Per MPI rank memory allocation (min/avg/max) = 14.36 | 14.66 | 14.99 Mbytes
   Step          Temp          TotEng         E_pair         E_bond        E_angle      v_dudepsilon   v_dudcharge    v_dudlambda       Press         Density          Pxx            Pyy            Pzz             Lx             Ly             Lz           S/CPU     
         0   295.27817     -299865.83     -310805.66      1113.0719      1038.2719     -0.30376698    -8.0549282     -8.3586952     -15503.044      1.4867815     -15095.458     -15070.49      -16343.184      37.657143      32.594348      112.26721      0            
       100   364.41998     -300862.31     -314075.92      958.60105      1408.631      -1.783458      -8.6744728     -10.457931     -4356.9348      1.5293205     -4439.0635     -4184.4187     -4447.3223      37.316695      32.295418      111.15965      104.99938    
       200   361.35656     -301510.77     -315332.05      1543.0804      1523.0042     -1.8349859     -8.7921333     -10.627119      2243.6612      1.5484428      1026.3933      339.79629      5364.794       37.152058      32.146588      110.78395      103.64247    
       300   344.94741     -302134.57     -315323.4       1323.5281      1598.4979     -1.8537727     -8.7895191     -10.643292      2328.9378      1.5453385     -388.78966      242.26789      7133.3351      37.069973      32.068945      111.52165      103.8783     
       400   336.17737     -302643.79     -315521.07      1342.7197      1528.7821     -1.7586799     -8.6411235     -10.399803     -236.16209      1.5325468     -1233.8935     -1550.9963      2076.4035      37.04294       32.054246      112.58616      104.53572    
       500   330.36268     -303030.69     -315642.84      1305.8735      1473.5595     -1.6706494     -8.6776591     -10.348308     -1426.3879      1.5314255     -1571.0489     -1699.1103     -1009.0046      36.985147      31.993451      113.05908      105.32133    
       600   328.92115     -303379.45     -315840.9       1268.4268      1403.2146     -1.6935784     -8.7140569     -10.407635     -915.97296      1.5416235     -991.26509     -899.09322     -857.56057      36.871214      31.884987      113.04146      105.48133    
       700   323.45492     -303697.61     -316084.48      1381.4868      1378.2609     -1.6786781     -8.6965329     -10.375211      615.16103      1.5495232      304.56         745.53741      795.38566      36.806929      31.805925      112.94163      104.35459    
       800   322.72097     -303970.2      -316364.11      1319.489       1469.1476     -1.7415806     -8.7546087     -10.496189      304.15258      1.5502707     -81.500287     -337.30775      1331.2658      36.7827        31.770954      113.08587      104.22078    
       900   319.45166     -304224.15     -316506.56      1379.2574      1395.1935     -1.7041248     -8.7004373     -10.404562     -76.540532      1.5463986     -697.80221     -116.70253      584.88314      36.788144      31.759206      113.39419      104.80972    
SHAKE stats (type/ave/delta/count) on step 1000
Bond:   4   0.9572    1.98767e-05     7166
Angle:  3   104.52    0.00224073      3583
      1000   313.49183     -304425.18     -316491.77      1372.8899      1363.123      -1.7552995     -8.7304522     -10.485752      355.35182      1.5458383      298.8912       531.39083      235.77344      36.764904      31.742284      113.5675       104.15153    
      1100   311.00973     -304607.69     -316613.92      1357.9913      1391.543      -1.7400328     -8.6573525     -10.397385     -570.69812      1.5447001     -680.56984     -151.12228     -880.40224      36.755719      31.731236      113.71916      106.57535    
      1200   308.2567      -304755.58     -316690         1387.8743      1371.7896     -1.7581889     -8.7263847     -10.484574      395.13166      1.5451661      794.36822      88.314525      302.71223      36.745389      31.725723      113.73659      106.14658    
      1300   307.46907     -304908.6      -316789.37      1327.8688      1401.5761     -1.7815662     -8.7009148     -10.482481     -116.56829      1.544273      -552.87432     -38.230301      241.39976      36.740138      31.739836      113.76802      105.40833    
      1400   307.15844     -305007.25     -316896.49      1385.241       1361.9261     -1.743956      -8.6987325     -10.442689      137.54481      1.5423874      115.7917       465.99534     -169.15263      36.732622      31.761326      113.85333      106.19195    
      1500   302.99316     -305115.52     -316887.18      1374.7741      1378.7812     -1.7404615     -8.6948952     -10.435357     -173.25882      1.5420444     -319.95048     -240.25562      40.429633      36.718808      31.760915      113.92297      106.10661    
      1600   305.71163     -305187.11     -316941.34      1360.1654      1295.0549     -1.7353502     -8.7097078     -10.445058      62.789019      1.542337       377.7428      -659.23676      469.86102      36.711488      31.753749      113.94977      105.46909    
      1700   308.15486     -305283.72     -317100.24      1377.8539      1266.9318     -1.7309687     -8.7280571     -10.459026      125.46541      1.5428596     -836.16091      456.52571      756.03143      36.699525      31.736847      114.009        104.44061    
      1800   303.60883     -305364.98     -317055.58      1374.2361      1279.9344     -1.77826       -8.7057434     -10.484003      175.06816      1.5420523      60.033603      459.57708      5.593801       36.679277      31.721895      114.18545      102.6095     
      1900   304.01282     -305419.46     -317171.96      1413.98        1290.0692     -1.7411752     -8.7272415     -10.468417      49.982942      1.5413731      487.68464     -333.1621      -4.5737175      36.664479      31.711258      114.3202       104.68802    
SHAKE stats (type/ave/delta/count) on step 2000
Bond:   4   0.957202  1.00969e-05     7166
Angle:  3   104.52    0.00108417      3583
      2000   302.98705     -305449.36     -317152.67      1346.5494      1338.8453     -1.7625965     -8.7480446     -10.510641      51.458741      1.5410135      429.08607      217.0538      -491.76365      36.657712      31.695456      114.42501      105.29226    
      2100   302.47943     -305490.79     -317185.65      1379.9874      1312.0582     -1.718693      -8.7499807     -10.468674     -90.520092      1.5393642     -243.12047      283.90287     -312.34267      36.681276      31.696647      114.46972      106.70103    
      2200   300.49101     -305509.07     -317115.61      1351.6646      1311.2416     -1.7627197     -8.7977561     -10.560476     -52.7979        1.5394614      158.98226     -508.82506      191.4491       36.687576      31.701607      114.42493      107.02049    
      2300   301.53244     -305531.53     -317243.11      1409.5807      1327.3705     -1.7662687     -8.7563155     -10.522584      528.02432      1.5398877      442.43904      324.42371      817.2102       36.663286      31.704239      114.45953      106.66025    
      2400   298.50769     -305552.86     -317089.08      1389.7478      1261.8673     -1.7691458     -8.7074579     -10.476604      25.088656      1.5370013      48.18932       439.59301     -412.51636      36.662994      31.732245      114.57419      104.39995    
      2500   298.89371     -305566.56     -317057.66      1317.1581      1277.8544     -1.7493567     -8.7876655     -10.537022     -33.031991      1.535538      -327.34256     -384.7963       613.04289      36.66055       31.759296      114.59332      104.96878    
      2600   299.9531      -305575.57     -317199.96      1416.7107      1280.0644     -1.7345963     -8.7518831     -10.486479      92.381857      1.5367432      652.96772     -378.54864      2.7264972      36.638299      31.766533      114.5469       103.90324    
      2700   301.37965     -305587.5      -317206.6       1325.2204      1323.7941     -1.722232      -8.7363081     -10.45854      -368.14984      1.5388061     -125.59327     -500.77101     -478.08524      36.627692      31.748582      114.49117      105.46595    
      2800   297.04335     -305597.8      -317104.49      1385.2667      1280.4055     -1.7135018     -8.7463482     -10.45985      -56.573274      1.5397174      208.78736     -431.13698      52.6298        36.631003      31.727927      114.48754      104.23889    
      2900   299.90174     -305600.19     -317227.87      1387.1596      1314.4331     -1.7638576     -8.7493485     -10.513206      471.59798      1.5406091      705.96263     -134.37716      843.20846      36.639002      31.706446      114.47379      104.81861    
SHAKE stats (type/ave/delta/count) on step 3000
Bond:   4   0.957201  5.04328e-06     7166
Angle:  3   104.52    0.000536977     3583
      3000   298.04621     -305599.31     -317093.51      1366.8887      1256.4477     -1.7514404     -8.7390115     -10.490452     -427.24548      1.5398603     -398.69116     -156.32262     -726.72267      36.65262       31.690316      114.54518      105.00919    
      3100   298.14571     -305588.78     -317078.42      1353.0255      1262.7864     -1.751614      -8.6963373     -10.447951      597.04911      1.5395914      356.30101      1002.923       431.92331      36.675987      31.686138      114.50729      105.72761    
      3200   300.89517     -305570.23     -317125.18      1311.7116      1287.5775     -1.7251347     -8.6926375     -10.417772     -583.00619      1.5386734      267.68343     -1046.3229     -970.37908      36.693818      31.699949      114.47004      105.71253    
      3300   296.19222     -305543.2      -317050.81      1412.2856      1279.6445     -1.7541272     -8.7986325     -10.55276       508.46601      1.5403781      96.994996      539.5477       888.85533      36.691251      31.694097      114.37248      105.99529    
      3400   299.34566     -305537.79     -317041.93      1314.6287      1279.9728     -1.7396622     -8.6835956     -10.423258      121.6128       1.5407301     -264.20275      506.34079      122.70036      36.683597      31.705953      114.32743      106.58816    
      3500   295.33387     -305540.95     -317002.5       1319.3659      1352.0427     -1.7678329     -8.740736      -10.508569      17.457643      1.5416543     -386.7366      -156.11158      595.22111      36.669734      31.711082      114.2836       104.62593    
      3600   298.15907     -305538.63     -317154.62      1424.1977      1317.5691     -1.7127161     -8.7074947     -10.420211      318.33689      1.5424903      462.2308       457.07327      35.706605      36.642048      31.71459       114.29533      105.47647    
      3700   301.16957     -305536.59     -317115.05      1312.8603      1301.7687     -1.7744688     -8.8390438     -10.613513     -78.042079      1.5406965     -842.77452     -239.37401      848.0223       36.639591      31.733532      114.36776      105.74474    
      3800   300.00508     -305538.21     -317111.57      1343.6506      1300.545      -1.798409      -8.7943153     -10.592724      367.75943      1.5386963      485.958       -6.9613744      624.28167      36.632101      31.750939      114.47705      103.76852    
      3900   298.98642     -305532.76     -317073.89      1377.0676      1265.2094     -1.7181134     -8.8128287     -10.530942      17.67181       1.5372044     -75.096457      586.73124     -458.61936      36.634395      31.750415      114.58287      104.35391    
SHAKE stats (type/ave/delta/count) on step 4000
Bond:   4   0.957199  8.28648e-06     7166
Angle:  3   104.52    0.000910393     3583
      4000   301.26001     -305524.81     -317097.23      1367.7873      1238.1232     -1.7677721     -8.7214847     -10.489257     -39.439333      1.5371857      4.9716558     -413.72586      290.43621      36.63184       31.73761       114.63849      103.84446    
      4100   299.97966     -305514.58     -317195.03      1383.3541      1368.6909     -1.7440159     -8.6757168     -10.419733      475.08413      1.5366885      32.551448      361.7369       1030.9641      36.638261      31.713039      114.74432      105.37378    
      4200   298.55564     -305528.23     -317090.54      1346.8916      1329.3954     -1.7481637     -8.751677      -10.499841     -385.17344      1.5343228     -601.05091     -0.4308127     -554.03859      36.646773      31.697557      114.95066      105.54838    
      4300   298.31743     -305504.63     -317054.08      1404.5846      1265.9226     -1.7345106     -8.6827622     -10.417273     -201.35542      1.5336517      85.038042     -528.84005     -160.26424      36.646827      31.678561      115.06976      104.91766    
      4400   301.83816     -305491.76     -317075.82      1332.153       1268.1754     -1.7724728     -8.7599167     -10.53239       45.71966       1.5346762      77.106947     -353.21909      413.27112      36.633759      31.655074      115.11931      104.79721    
      4500   300.86835     -305495.27     -317118.25      1370.94        1297.1796     -1.7640371     -8.7558086     -10.519846      163.24143      1.5335506      438.73839      563.49138     -512.50548      36.627201      31.656298      115.21998      105.2251     
      4600   296.64987     -305486.66     -316942.67      1333.6898      1293.0161     -1.7695208     -8.7797288     -10.54925       172.47864      1.5304607      8.2666106      316.5538       192.61551      36.649574      31.683465      115.28318      105.49076    
      4700   299.42883     -305466.8      -316970.97      1299.6548      1292.5015     -1.7313675     -8.7427061     -10.474074     -537.73149      1.5286403     -712.4218      -423.519       -477.25368      36.673349      31.70724       115.25916      104.90884    
      4800   299.2119      -305447.06     -316936.73      1322.6494      1261.4605     -1.763883      -8.7604622     -10.524345      173.10636      1.531351       188.45514      880.28003     -549.41609      36.658887      31.700888      115.12359      105.35294    
      4900   296.89718     -305443.03     -316899         1366.9103      1252.3964     -1.7440862     -8.7997425     -10.543829     -8.5718009      1.5311566     -358.593       -338.7687       671.6463       36.677279      31.717546      115.02003      104.97025    
SHAKE stats (type/ave/delta/count) on step 5000
Bond:   4   0.957197  3.72209e-06     7166
Angle:  3   104.52    0.000406953     3583
      5000   299.85814     -305433.02     -316928.1       1316.0295      1254.2481     -1.7412215     -8.695547      -10.436768     -77.41848       1.5311794     -418.45348      247.9046      -61.706554      36.673195      31.718963      115.02598      104.13516    
      5100   302.12893     -305444.81     -317026.35      1305.4991      1283.6628     -1.7546802     -8.7501396     -10.50482      -29.126669      1.5319918      89.363963      17.124325     -193.86829      36.652985      31.720557      115.02259      104.00265    
      5200   299.75406     -305443.92     -316992.76      1386.4613      1240.6896     -1.7236822     -8.7398641     -10.463546     -206.98503      1.5311127     -460.80576     -111.37228     -48.777066      36.644318      31.739892      115.04573      104.29003    
      5300   300.47645     -305433.97     -316915.94      1298.5624      1240.2102     -1.7162172     -8.8089942     -10.525211     -268.97947      1.5318851     -249.57272     -399.65327     -157.71243      36.621207      31.737676      115.06832      104.05185    
      5400   303.02748     -305456.41     -317100.96      1358.1401      1267.2896     -1.7664592     -8.7757968     -10.542256      602.34304      1.5322406      1089.1288      44.463295      673.43702      36.603321      31.726151      115.13965      105.17306    
      5500   299.6587      -305477.38     -317006.52      1341.7161      1268.5741     -1.7406361     -8.7140696     -10.454706     -364.47185      1.5289425     -44.319958     -447.40291     -601.69267      36.622259      31.73594       115.29278      104.58024    
      5600   297.31696     -305467.92     -316943.25      1372.6986      1253.4674     -1.7520618     -8.8013478     -10.55341      -396.38768      1.5284683     -497.70687     -463.65334     -227.80282      36.633483      31.718714      115.35583      105.38528    
      5700   301.02941     -305452.06     -316964.5       1350.9113      1201.8781     -1.7791573     -8.811499      -10.590656      589.6655       1.5311355      472.18688      539.99484      756.81479      36.622335      31.683101      115.31941      105.35835    
      5800   301.18948     -305455.11     -317019.3       1332.152       1267.6147     -1.7357958     -8.7511024     -10.486898     -283.38323      1.5312147     -572.80276     -170.45734     -106.88957      36.630904      31.677594      115.30651      105.48893    
      5900   298.60295     -305456.44     -317013.16      1363.7705      1305.5224     -1.7236763     -8.8225512     -10.546228     -57.581077      1.5303345     -64.351508      248.93204     -357.32376      36.627659      31.680985      115.3707       105.44701    
SHAKE stats (type/ave/delta/count) on step 6000
Bond:   4   0.957205  7.57784e-06     7166
Angle:  3   104.52    0.000818083     3583
      6000   301.61239     -305440.44     -317094.68      1390.0384      1287.1929     -1.7533194     -8.7044375     -10.457757      95.313849      1.5282519      136.74063      365.3027      -216.10179      36.626475      31.701675      115.45625      104.54086    
      6100   298.18034     -305432.98     -316898.13      1328.6542      1261.6401     -1.716111      -8.7340956     -10.450207     -378.39696      1.5258654     -533.5399      -603.70425      2.0532726      36.636844      31.7318        115.49435      106.60403    
      6200   301.11392     -305404.3      -317002.24      1371.9427      1263.8227     -1.7476809     -8.7222155     -10.469896     -77.725472      1.5267281     -130.24471     -688.04586      585.11415      36.640016      31.720712      115.45945      104.4411     
      6300   303.07447     -305409.14     -317071.55      1377.63        1264.264      -1.7415068     -8.7625545     -10.504061      467.90661      1.5283339      854.12716      316.34604      233.24663      36.643424      31.677847      115.48346      105.56714    
      6400   298.97984     -305422        -316944.19      1352.7801      1270.7598     -1.7511304     -8.7652096     -10.51634      -132.52552      1.5262833     -317.14877      448.60614     -529.03393      36.669291      31.660889      115.61894      106.79062    
      6500   298.6246      -305408.7      -316966.83      1392.2599      1277.7865     -1.7507952     -8.7665002     -10.517295     -104.01206      1.5240935     -217.43423     -241.96013      147.35819      36.681823      31.673555      115.69922      106.57431    
      6600   301.17995     -305395.7      -316908.74      1311.3483      1237.5556     -1.7536368     -8.8292177     -10.582854      35.843759      1.5234744     -521.20852      390.5057       238.23409      36.680981      31.683396      115.71294      105.25727    
      6700   301.87431     -305399.37     -317076.71      1350.6905      1341.8486     -1.798262      -8.7207088     -10.518971      252.21468      1.5229872      49.200275      206.59551      500.84825      36.660872      31.702955      115.74199      105.83899    
      6800   300.01987     -305397.7      -316903.03      1302.2397      1273.4753     -1.745122      -8.7388841     -10.484006     -65.778489      1.5226251      433.73784     -450.20045     -180.87286      36.639379      31.717123      115.78569      106.72819    
      6900   300.52444     -305396.61     -317052.36      1402.1899      1308.9316     -1.7642747     -8.7276122     -10.491887      434.79359      1.523633       679.48439      455.39787      169.49853      36.623184      31.712085      115.77865      105.08821    
SHAKE stats (type/ave/delta/count) on step 7000
Bond:   4   0.957204  5.27827e-06     7166
Angle:  3   104.52    0.000573051     3583
      7000   299.24174     -305404.77     -316886.7       1354.5373      1220.9452     -1.7336129     -8.797789      -10.531402     -223.12266      1.5224662     -810.37091     -374.98061      515.98354      36.633345      31.718673      115.81118      106.64837    
      7100   299.9446      -305392.96     -316989.81      1373.8816      1295.6023     -1.7731641     -8.7707766     -10.543941     -352.57966      1.5220338     -431.94112     -278.92016     -346.8777       36.634837      31.701632      115.90164      108.14729    
      7200   298.36531     -305388.19     -316803.51      1331.0461      1203.9109     -1.7621409     -8.7890705     -10.551211      634.07389      1.5243921      899.28324      405.16186      597.77656      36.623491      31.66409       115.89543      107.66128    
      7300   300.25243     -305384.5      -316850.86      1349.5262      1180.3024     -1.7921897     -8.7393576     -10.531547      331.99269      1.5247794      260.10253      790.29507     -54.419531      36.627578      31.650655      115.90224      107.22342    
      7400   298.55202     -305388.4      -316943.43      1373.4105      1295.6975     -1.7474357     -8.7417523     -10.489188     -34.513705      1.5240314     -136.44881     -158.98117      191.88887      36.627722      31.666687      115.89996      105.75389    
      7500   298.05801     -305386.63     -316857.42      1289.8242      1309.7482     -1.7573855     -8.8056399     -10.563025     -32.99164       1.5248095     -243.17804      550.10377     -405.90066      36.617387      31.678627      115.82984      107.02321    
      7600   300.13533     -305379.77     -316937.25      1362.4757      1261.9598     -1.7419254     -8.7368725     -10.478798      223.28441      1.524211       797.24568     -182.18938      54.796922      36.624327      31.692689      115.80196      106.24431    
      7700   294.74296     -305363.35     -316755.72      1324.9882      1294.8389     -1.7873392     -8.7999811     -10.58732      -76.136777      1.5237025     -229.15505     -482.08237      482.82709      36.643748      31.693324      115.77689      105.98644    
      7800   300.89241     -305331.53     -316839.19      1324.0699      1228.0133     -1.7410852     -8.7725387     -10.513624      42.366351      1.5245219      52.109616      294.87337     -219.88394      36.650804      31.675967      115.75579      105.90055    
      7900   300.43512     -305338.67     -316883.95      1356.3415      1246.9764     -1.7658792     -8.7664287     -10.532308      235.01996      1.5254578      296.89915      66.605115      341.55563      36.657559      31.656146      115.73586      106.80079    
SHAKE stats (type/ave/delta/count) on step 8000
Bond:   4   0.957199  5.64293e-06     7166
Angle:  3   104.52    0.000639961     3583
      8000   296.65972     -305343.41     -316760.04      1319.9125      1267.1227     -1.7465993     -8.8030358     -10.549635     -336.93104      1.5254772     -657.05161     -924.80321      571.0617       36.661265      31.652805      115.73491      106.72252    
      8100   301.14527     -305342.89     -316993.22      1375.5806      1311.6488     -1.7697055     -8.7699204     -10.539626      227.22867      1.5270198      117.00503      1423.2838     -858.60286      36.638412      31.635939      115.75179      107.44196    
      8200   297.04705     -305366.16     -316815.07      1307.7783      1300.0106     -1.7589711     -8.7762231     -10.535194     -14.841135      1.5275433      116.66363      64.309363     -225.49639      36.627226      31.64724       115.70613      107.30714    
      8300   299.8346      -305372.34     -316956.23      1430.1146      1229.6815     -1.735273      -8.7726191     -10.507892      38.674584      1.5259852      257.29549     -87.828375     -53.443361      36.635844      31.670453      115.71215      106.43435    
      8400   300.33838     -305365.03     -316880.51      1289.2898      1287.0965     -1.7888884     -8.7449719     -10.53386      -194.02134      1.5256195      50.180657     -0.36398411    -631.88068      36.644736      31.671823      115.70679      104.95296    
      8500   299.85357     -305343.96     -316894.37      1372.6402      1253.1165     -1.7368105     -8.8104717     -10.547282     -16.325195      1.5259157      214.99022     -493.49675      229.53094      36.643662      31.674189      115.67908      105.80553    
      8600   298.1819      -305332.01     -316807.53      1337.3027      1263.3118     -1.7485691     -8.7938811     -10.54245      -377.60849      1.5261604     -818.2695       328.42299     -642.97897      36.645312      31.66418       115.69188      106.70158    
      8700   300.60851     -305315.28     -316889.48      1345.6849      1281.3831     -1.8115005     -8.7295789     -10.541079      594.81805      1.5279921      494.97327      536.43353      753.04735      36.622334      31.668467      115.61005      105.88696    
      8800   300.48135     -305323.05     -316843.41      1379.5981      1197.4169     -1.7729069     -8.7528237     -10.525731     -114.34642      1.5260356      33.133396     -908.49415      532.32149      36.629199      31.690721      115.6553       106.81634    
      8900   300.35166     -305316.41     -316912.11      1363.1358      1293.0859     -1.7467511     -8.7767068     -10.523458      112.36404      1.5242514      746.62498     -228.05047     -181.48239      36.643612      31.686714      115.75978      106.59475    
SHAKE stats (type/ave/delta/count) on step 9000
Bond:   4   0.957203  6.61645e-06     7166
Angle:  3   104.52    0.000748483     3583
      9000   298.82082     -305325.68     -316747.42      1318.6378      1209.1832     -1.7562201     -8.756949      -10.513169     -287.98363      1.5225831     -571.16429     -84.823339     -207.96326      36.666989      31.685678      115.81651      106.79508    
      9100   303.45234     -305320.24     -316869.24      1319.4027      1197.8251     -1.730583      -8.7487471     -10.47933      -88.119388      1.5233682     -212.83632     -229.10999      177.58814      36.66967       31.681544      115.76347      106.52708    
      9200   302.10167     -305347.55     -316915.57      1339.0279      1237.4237     -1.7496616     -8.7450408     -10.494702     -36.839554      1.524676       2.7548808      33.482096     -146.75564      36.65881       31.679085      115.70742      106.9417     
      9300   298.28409     -305353.2      -316839.96      1291.2152      1317.6026     -1.7663782     -8.772281      -10.538659     -45.389189      1.5259789     -139.32589     -234.89238      238.05071      36.64157       31.667971      115.70361      106.82885    
      9400   298.9113      -305338.84     -316992.21      1429.1978      1327.5647     -1.7430607     -8.7836482     -10.526709      351.50266      1.5253855      112.84461      435.83901      505.82435      36.641274      31.663106      115.76734      105.24549    
      9500   300.87645     -305348.09     -316800.02      1249.3569      1247.4775     -1.7568737     -8.7607948     -10.517669     -516.45512      1.5241614     -703.54489     -388.99738     -456.82308      36.639406      31.675104      115.82234      106.13339    
      9600   299.63817     -305345.16     -316941.37      1429.6504      1248.3126     -1.730522      -8.7808764     -10.511398      316.46299      1.5248743      680.90861      282.20072     -13.720356      36.618163      31.68458       115.8007       105.27266    
      9700   301.80149     -305345.44     -316831.96      1265.6634      1238.2269     -1.7752071     -8.8005873     -10.575794     -621.24876      1.5263749     -189.46559     -890.47971     -783.80099      36.609196      31.688211      115.70194      105.71285    
      9800   300.7079      -305344.07     -316968.15      1387.8637      1286.1354     -1.7317612     -8.7578876     -10.489649      355.85081      1.5279811      565.12015      62.58167       439.85061      36.622066      31.676071      115.58397      105.65919    
      9900   299.86566     -305351.15     -316837.24      1296.8822      1264.1938     -1.7813677     -8.8327252     -10.614093      85.446067      1.5293284      295.80758     -142.59325      103.12387      36.632879      31.659735      115.50763      105.34682    
SHAKE stats (type/ave/delta/count) on step 10000
Bond:   4   0.957202  6.82852e-06     7166
Angle:  3   104.52    0.000756805     3583
     10000   302.40679     -305363.75     -316909.87      1317.0649      1228.405      -1.7811684     -8.8198511     -10.60102       288.67314      1.5293837      389.80757      233.82058      242.39129      36.641859      31.649978      115.51075      104.9342     
Loop time of 94.775 on 40 procs for 10000 steps with 13569 atoms

Performance: 9.116 ns/day, 2.633 hours/ns, 105.513 timesteps/s, 1.432 Matom-step/s
96.7% CPU use with 40 MPI tasks x 1 OpenMP threads

MPI task timing breakdown:
Section |  min time  |  avg time  |  max time  |%varavg| %total
---------------------------------------------------------------
Pair    | 36.655     | 45.078     | 51.002     |  60.8 | 47.56
Bond    | 0.012007   | 0.067116   | 0.21072    |  27.7 |  0.07
Kspace  | 25.882     | 31.755     | 40.048     |  71.5 | 33.51
Neigh   | 3.722      | 3.7275     | 3.7356     |   0.2 |  3.93
Comm    | 2.655      | 2.7301     | 2.7912     |   2.1 |  2.88
Output  | 0.1293     | 0.16757    | 0.19929    |   5.0 |  0.18
Modify  | 7.4674     | 9.3385     | 10.358     |  35.6 |  9.85
Other   |            | 1.911      |            |       |  2.02

Nlocal:        339.225 ave         366 max         296 min
Histogram: 4 2 1 1 0 4 8 9 5 6
Nghost:        7815.82 ave        8041 max        7501 min
Histogram: 6 2 2 3 3 0 5 3 9 7
Neighs:         197675 ave      225626 max      159775 min
Histogram: 5 2 1 0 2 6 10 6 4 4

Total # of neighbors = 7907011
Ave neighs/atom = 582.72614
Ave special neighs/atom = 2.2647211
Neighbor list builds = 535
Dangerous builds = 0
# --------- Writting the output coordinates and velocities ------------
write_data     TI.dat pair ij
System init for write_data ...
PPPM initialization ...
  using 12-bit tables for long-range coulomb (src/kspace.cpp:342)
  G vector (1/distance) = 0.28448136
  grid = 48 45 120
  stencil order = 5
  estimated absolute RMS force accuracy = 0.00035319136
  estimated relative force accuracy = 1.0636253e-06
  using double precision KISS FFT
  3d grid and FFT values/proc = 17670 6624
Generated 45 of 45 mixed pair_coeff terms from arithmetic mixing rule
Total wall time: 0:01:35
